 Gaussian 09, Revision D.01,
 Gaussian 09:  EM64L-G09RevD.01 24-Apr-2013

 ---------------------------------------
 # freq b3lyp/def2tzvp geom=connectivity
 ---------------------------------------

 --------
 freq-s12
 --------
 Symbolic Z-matrix:
 Charge =  0 Multiplicity = 1

                         Standard orientation:
 ---------------------------------------------------------------------
 Center     Atomic      Atomic             Coordinates (Angstroms)
 Number     Number       Type             X           Y           Z
 ---------------------------------------------------------------------
      1          6           0        1.429760   -0.805807   -0.049501
      2          6           0        2.673140    0.044779   -0.172067
      3          1           0        3.532733   -0.527650    0.199549
      4          1           0        2.835968    0.292508   -1.221568
      5          1           0        2.593983    0.971849    0.404061
      6          8           0        0.927232   -1.443434   -0.936832
      7          8           0       -0.256647    1.555625   -0.534696
      8          8           0       -2.022754   -0.426340    0.576176
      9          6           0       -2.593557   -1.325418   -0.383152
     10          1           0       -3.400165   -0.779308   -0.878151
     11          1           0       -1.849718   -1.639222   -1.124424
     12          1           0       -3.016942   -2.210835    0.109211
     13          1           0       -1.272890   -0.865822    1.013953
     14          1           0       -0.952991    0.912029   -0.288891
     15          6           0       -0.546847    2.809476    0.067278
     16          1           0       -0.627136    2.737053    1.163015
     17          1           0        0.278830    3.483142   -0.180913
     18          1           0       -1.478905    3.246026   -0.320062
     19          8           0        0.895910   -0.906026    1.215527
     20          1           0        1.232337   -0.196556    1.787467
 ---------------------------------------------------------------------

 SCF Done:  E(RB3LYP) =  -460.749249574     A.U. after   13 cycles

 The electronic state is 1-A.
 Alpha  occ. eigenvalues --  -19.18591 -19.13126 -19.12045 -19.10779 -10.31645
 Alpha  occ. eigenvalues --  -10.20918 -10.20673 -10.19588  -1.10991  -1.02981
 Alpha  occ. eigenvalues --   -1.02083  -1.00013  -0.76073  -0.68203  -0.67345
 Alpha  occ. eigenvalues --   -0.62764  -0.52692  -0.50761  -0.49952  -0.48046
 Alpha  occ. eigenvalues --   -0.47392  -0.43917  -0.43323  -0.42854  -0.42753
 Alpha  occ. eigenvalues --   -0.41848  -0.40759  -0.39011  -0.34724  -0.33798
 Alpha  occ. eigenvalues --   -0.32590  -0.29041  -0.28421  -0.26782
 Alpha virt. eigenvalues --   -0.01227   0.00305   0.05140   0.05738   0.06095
 Alpha virt. eigenvalues --    0.07710   0.09456   0.10461   0.10723   0.11593
 Alpha virt. eigenvalues --    0.12232   0.12378   0.13483   0.13739   0.15618

 Mulliken charges:
               1
     1  C    0.347763
     2  C   -0.348684
     3  H    0.136872
     4  H    0.140823
     5  H    0.115141
     6  O   -0.303885
     7  O   -0.499295
     8  O   -0.517315
     9  C   -0.153123
    10  H    0.112569
    11  H    0.141633
    12  H    0.105134
    13  H    0.327346
    14  H    0.333538
    15  C   -0.138371
    16  H    0.085154
    17  H    0.104993
    18  H    0.101673
    19  O   -0.411011
    20  H    0.319043
 Sum of Mulliken charges =   0.00000

 Dipole moment (field-independent basis, Debye):
    X=              1.7122    Y=              1.1703    Z=              2.4644  Tot=              3.2209
 Quadrupole moment (field-independent basis, Debye-Ang):
   XX=            -42.8041   YY=            -51.1917   ZZ=            -50.8155
   XY=              3.2891   XZ=              5.0294   YZ=              0.1896

  Exact polarizability:  75.795   5.249  72.336   1.175   3.157  66.997
 Approx polarizability:  92.449   6.114  92.882   3.574   7.750 100.575

                      1                      2                      3
                      A                      A                      A
 Frequencies --     67.1621                75.2878                86.1935
 Red. masses --      3.8194                 5.0372                 4.2367
 Frc consts  --      0.0102                 0.0168                 0.0185
 IR Inten    --      0.3911                 4.3519                 0.6988

                      4                      5                      6
                      A                      A                      A
 Frequencies --     95.7413                97.9238               108.5542
 Red. masses --      3.3827                 4.9721                 3.5590
 Frc consts  --      0.0183                 0.0281                 0.0247
 IR Inten    --      6.6113                 9.7637                 5.3889

                      7                      8                      9
                      A                      A                      A
 Frequencies --    110.5461               128.9338               142.7258
 Red. masses --      4.3691                 4.2944                 3.2773
 Frc consts  --      0.0315                 0.0421                 0.0393
 IR Inten    --     11.7954                 4.4789                 1.6728

                     10                     11                     12
                      A                      A                      A
 Frequencies --    189.5145               199.8460               214.0844
 Red. masses --      4.7253                 1.0295                 1.0218
 Frc consts  --      0.1000                 0.0242                 0.0276
 IR Inten    --      3.6323                 0.0255                 0.7206

                     13                     14                     15
                      A                      A                      A
 Frequencies --    222.8497               442.3255               532.5729
 Red. masses --      1.0393                 2.7774                 1.2847
 Frc consts  --      0.0304                 0.3202                 0.2147
 IR Inten    --      0.5823                 0.6407               160.8490

                     16                     17                     18
                      A                      A                      A
 Frequencies --    564.5551               610.7881               613.5245
 Red. masses --      1.2177                 2.7893                 2.4384
 Frc consts  --      0.2287                 0.6131                 0.5408
 IR Inten    --    206.3098                13.7530                 6.0372

                     19                     20                     21
                      A                      A                      A
 Frequencies --    788.2799               842.5350               996.1204
 Red. masses --      1.0589                 6.1833                 1.5929
 Frc consts  --      0.3877                 2.5861                 0.9313
 IR Inten    --     63.9816                31.1678                14.6933

                     22                     23                     24
                      A                      A                      A
 Frequencies --   1027.7092              1048.3790              1070.3833
 Red. masses --      7.4465                 6.6899                 1.7799
 Frc consts  --      4.6339                 4.3322                 1.2015
 IR Inten    --    116.7026                94.7101                 7.3776

                     25                     26                     27
                      A                      A                      A
 Frequencies --   1119.4376              1131.9987              1179.6493
 Red. masses --      1.1122                 1.1375                 1.2643
 Frc consts  --      0.8211                 0.8588                 1.0366
 IR Inten    --     12.2289                14.6884                 0.5485

                     28                     29                     30
                      A                      A                      A
 Frequencies --   1186.5158              1195.2470              1287.8706
 Red. masses --      1.2568                 2.0046                 1.7035
 Frc consts  --      1.0425                 1.6873                 1.6647
 IR Inten    --      0.4819                22.7444               315.3735

                     31                     32                     33
                      A                      A                      A
 Frequencies --   1404.8996              1411.6468              1444.8290
 Red. masses --      1.2566                 1.2537                 1.2008
 Frc consts  --      1.4613                 1.4719                 1.4770
 IR Inten    --     33.1407                26.5570                27.4205

                     34                     35                     36
                      A                      A                      A
 Frequencies --   1465.5532              1480.9819              1482.0705
 Red. masses --      1.0503                 1.1293                 1.1343
 Frc consts  --      1.3291                 1.4594                 1.4680
 IR Inten    --      8.7747                 6.2522                 1.6346

                     37                     38                     39
                      A                      A                      A
 Frequencies --   1492.5415              1495.9264              1498.8244
 Red. masses --      1.0515                 1.0522                 1.0495
 Frc consts  --      1.3801                 1.3873                 1.3891
 IR Inten    --     10.7122                 1.3439                 2.4853

                     40                     41                     42
                      A                      A                      A
 Frequencies --   1516.4833              1519.8144              1808.6165
 Red. masses --      1.0435                 1.0409                 9.5535
 Frc consts  --      1.4138                 1.4166                18.4122
 IR Inten    --      4.6877                 3.2018               243.7254

                     43                     44                     45
                      A                      A                      A
 Frequencies --   2948.1019              2981.0167              2991.7699
 Red. masses --      1.0377                 1.0353                 1.1017
 Frc consts  --      5.3139                 5.4205                 5.8101
 IR Inten    --     76.4917                64.5609                66.0443

                     46                     47                     48
                      A                      A                      A
 Frequencies --   3008.2317              3042.4772              3059.2084
 Red. masses --      1.0406                 1.1019                 1.0973
 Frc consts  --      5.5484                 6.0099                 6.0506
 IR Inten    --      3.9844                29.4733                44.6744

                     49                     50                     51
                      A                      A                      A
 Frequencies --   3070.3816              3085.7066              3120.4386
 Red. masses --      1.0975                 1.1030                 1.1002
 Frc consts  --      6.0960                 6.1879                 6.3118
 IR Inten    --      8.6423                26.1621                 2.6299

                     52                     53                     54
                      A                      A                      A
 Frequencies --   3518.3992              3665.2801              3709.5308
 Red. masses --      1.0686                 1.0666                 1.0656
 Frc consts  --      7.7940                 8.4424                 8.6395
 IR Inten    --    490.3935               171.1356                41.2788

 - Thermochemistry -
 -------------------
 Temperature   298.150 Kelvin.  Pressure   1.00000 Atm.
 Atom     1 has atomic number  6 and mass  12.00000

 Molecular mass:   124.07356 amu.
 Principal axes and moments of inertia in atomic units:
                           1         2         3
     Eigenvalues --  1112.954731450.437202139.99354
           X            0.99622   0.08572   0.01380
           Y           -0.08589   0.99623   0.01216
           Z           -0.01270  -0.01330   0.99983
 This molecule is an asymmetric top.
 Rotational symmetry number  1.
 Warning -- assumption of classical behavior for rotation
           may cause significant error
 Rotational temperatures (Kelvin)      0.07782     0.05972     0.04047
 Rotational constants (GHZ):           1.62158     1.24427     0.84334
 Zero-point vibrational energy     440225.7 (Joules/Mol)
                                  105.21646 (Kcal/Mol)
 Warning -- explicit consideration of  18 degrees of freedom as
           vibrations may cause significant error
 Vibrational temperatures:     96.63   108.32   124.01   137.75   140.89
          (Kelvin)            156.19   159.05   185.51   205.35   272.67
                              287.53   308.02   320.63   636.41   766.25
                              812.27   878.79   882.72  1134.16  1212.22
                             1433.19  1478.64  1508.38  1540.04  1610.62
                             1628.69  1697.25  1707.13  1719.69  1852.96
                             2021.33  2031.04  2078.78  2108.60  2130.80
                             2132.37  2147.43  2152.30  2156.47  2181.88
                             2186.67  2602.19  4241.66  4289.01  4304.48
                             4328.17  4377.44  4401.51  4417.59  4439.64
                             4489.61  5062.19  5273.51  5337.18

 Zero-point correction=                           0.167673 (Hartree/Particle)
 Thermal correction to Energy=                    0.180713
 Thermal correction to Enthalpy=                  0.181657
 Thermal correction to Gibbs Free Energy=         0.127720
 Sum of electronic and zero-point Energies=           -460.581576
 Sum of electronic and thermal Energies=              -460.568537
 Sum of electronic and thermal Enthalpies=            -460.567593
 Sum of electronic and thermal Free Energies=         -460.621529

                     E (Thermal)             CV                S
                      KCal/Mol        Cal/Mol-Kelvin    Cal/Mol-Kelvin
 Total                  113.399             41.337            113.519
 Electronic               0.000              0.000              0.000
 Translational            0.889              2.981             40.361
 Rotational               0.889              2.981             29.625
 Vibrational            111.621             35.375             43.532
 Vibration     1          0.598              1.970              4.235
 Vibration     2          0.599              1.965              4.010
 Vibration     3          0.601              1.959              3.745
 Vibration     4          0.603              1.952              3.539
 Vibration     5          0.603              1.951              3.495
 Vibration     6          0.606              1.942              3.295
 Vibration     7          0.606              1.941              3.259
 Vibration     8          0.611              1.924              2.962
 Vibration     9          0.616              1.910              2.767
 Vibration    10          0.633              1.854              2.233
 Vibration    11          0.638              1.840              2.135
 Vibration    12          0.644              1.820              2.009
 Vibration    13          0.649              1.806              1.936
 Vibration    14          0.802              1.378              0.819
 Vibration    15          0.888              1.178              0.581
 Vibration    16          0.920              1.108              0.515
 Vibration    17          0.970              1.009              0.431
 Vibration    18          0.973              1.003              0.427

 Normal termination of Gaussian 09 at Sun Jun  7 20:59:31 2015.
