 Gaussian 09, Revision D.01,
 Gaussian 09:  EM64L-G09RevD.01 24-Apr-2013

 -----------------------------------------------
 # freq=noraman b3lyp/def2tzvp geom=connectivity
 -----------------------------------------------

 ------------
 ts624oh freq
 ------------
 Symbolic Z-matrix:
 Charge =  0 Multiplicity = 1

                         Standard orientation:
 ---------------------------------------------------------------------
 Center     Atomic      Atomic             Coordinates (Angstroms)
 Number     Number       Type             X           Y           Z
 ---------------------------------------------------------------------
      1          6           0        0.916798   -0.636468    0.009961
      2          8           0        2.117995   -0.619107   -0.645915
      3          8           0        0.030999   -1.467619   -0.446416
      4          8           0        0.213174    0.924277   -0.429007
      5          8           0       -1.914197   -0.076456   -0.627492
      6          6           0       -2.889085   -0.069909    0.419960
      7          1           0       -2.416658   -0.108762    1.410578
      8          1           0       -3.487257    0.842157    0.336639
      9          1           0       -3.541223   -0.939295    0.297519
     10          1           0       -1.025684    0.667748   -0.496602
     11          1           0       -1.138326   -0.918637   -0.536563
     12          6           0        1.130812   -0.520823    1.506801
     13          1           0        1.522801   -1.480594    1.860531
     14          1           0        1.850742    0.261645    1.759007
     15          1           0        0.181246   -0.325914    2.011063
     16          6           0        0.790269    2.137106    0.018330
     17          1           0        1.876320    2.096354   -0.128420
     18          1           0        0.389436    2.960934   -0.584470
     19          1           0        0.575793    2.335104    1.079144
     20          1           0        1.936266   -0.938934   -1.548088
 ---------------------------------------------------------------------

 SCF Done:  E(RB3LYP) =  -460.706052190     A.U. after   13 cycles

 The electronic state is 1-A.
 Alpha  occ. eigenvalues --  -19.14837 -19.14787 -19.12490 -19.09062 -10.32317
 Alpha  occ. eigenvalues --  -10.23051 -10.21618 -10.17290  -1.08841  -1.04421
 Alpha  occ. eigenvalues --   -0.99194  -0.97938  -0.74781  -0.70867  -0.67710
 Alpha  occ. eigenvalues --   -0.60201  -0.54334  -0.53248  -0.51041  -0.47308
 Alpha  occ. eigenvalues --   -0.46552  -0.45583  -0.44704  -0.43216  -0.41487
 Alpha  occ. eigenvalues --   -0.39958  -0.39706  -0.37746  -0.35533  -0.33833
 Alpha  occ. eigenvalues --   -0.30409  -0.28016  -0.27768  -0.26812
 Alpha virt. eigenvalues --    0.02000   0.04143   0.05300   0.06028   0.06686
 Alpha virt. eigenvalues --    0.07716   0.09428   0.10030   0.10978   0.11463
 Alpha virt. eigenvalues --    0.12374   0.13064   0.14425   0.16836   0.17878

 Mulliken charges:
               1
     1  C    0.386331
     2  O   -0.396791
     3  O   -0.515002
     4  O   -0.449503
     5  O   -0.433188
     6  C   -0.168328
     7  H    0.103758
     8  H    0.121706
     9  H    0.127959
    10  H    0.348097
    11  H    0.360463
    12  C   -0.304964
    13  H    0.124406
    14  H    0.118974
    15  H    0.099394
    16  C   -0.183282
    17  H    0.128781
    18  H    0.121127
    19  H    0.100697
    20  H    0.309366
 Sum of Mulliken charges =   0.00000

 Dipole moment (field-independent basis, Debye):
    X=             -1.1446    Y=              1.8253    Z=              1.6830  Tot=              2.7340
 Quadrupole moment (field-independent basis, Debye-Ang):
   XX=            -47.4303   YY=            -51.1270   ZZ=            -48.8273
   XY=              0.1222   XZ=             -3.4213   YZ=              0.1173

  Exact polarizability:  84.410   0.340  77.006  -0.407  -0.107  65.726
 Approx polarizability: 108.265   0.461 105.840   0.349   1.285  91.032

 ******    1 imaginary frequencies (negative Signs) ******

                      1                      2                      3
                      A                      A                      A
 Frequencies --  -1308.4640                83.2398               112.9032
 Red. masses --      1.1628                 4.1652                 2.8015
 Frc consts  --      1.1729                 0.0170                 0.0210
 IR Inten    --    247.3103                 5.1073                 3.9136

                      4                      5                      6
                      A                      A                      A
 Frequencies --    157.1677               170.5945               209.6817
 Red. masses --      3.3858                 3.0032                 1.0442
 Frc consts  --      0.0493                 0.0515                 0.0270
 IR Inten    --      0.4398                 3.5502                 3.1588

                      7                      8                      9
                      A                      A                      A
 Frequencies --    213.5053               247.3285               281.5074
 Red. masses --      3.2686                 1.0449                 4.0209
 Frc consts  --      0.0878                 0.0377                 0.1877
 IR Inten    --     34.7999                 4.1567                51.2018

                     10                     11                     12
                      A                      A                      A
 Frequencies --    291.9732               324.2624               352.2097
 Red. masses --      1.0444                 4.4284                 3.9795
 Frc consts  --      0.0525                 0.2743                 0.2909
 IR Inten    --      0.1910                12.2978                41.0319

                     13                     14                     15
                      A                      A                      A
 Frequencies --    456.7773               493.0022               535.3855
 Red. masses --      3.4760                 2.9585                 1.8360
 Frc consts  --      0.4273                 0.4237                 0.3101
 IR Inten    --     29.9904                40.3453                31.4006

                     16                     17                     18
                      A                      A                      A
 Frequencies --    552.5776               594.4419               715.5188
 Red. masses --      4.3315                 3.2805                 3.1022
 Frc consts  --      0.7792                 0.6830                 0.9357
 IR Inten    --     61.0390               102.6018               300.2492

                     19                     20                     21
                      A                      A                      A
 Frequencies --    841.7359               997.7136              1034.3932
 Red. masses --      4.4683                 1.8162                 4.4881
 Frc consts  --      1.8653                 1.0652                 2.8293
 IR Inten    --     96.5382               617.1243               390.2030

                     22                     23                     24
                      A                      A                      A
 Frequencies --   1065.7630              1103.3953              1144.1086
 Red. masses --      1.7673                 3.2935                 1.3212
 Frc consts  --      1.1827                 2.3625                 1.0189
 IR Inten    --    192.9909               550.4280               985.3962

                     25                     26                     27
                      A                      A                      A
 Frequencies --   1146.5724              1173.9353              1185.7880
 Red. masses --      1.2064                 1.8012                 1.2968
 Frc consts  --      0.9344                 1.4625                 1.0744
 IR Inten    --    261.7960                81.4638                 2.1452

                     28                     29                     30
                      A                      A                      A
 Frequencies --   1193.2963              1244.2373              1271.5963
 Red. masses --      1.3972                 1.3325                 1.1980
 Frc consts  --      1.1722                 1.2154                 1.1413
 IR Inten    --    208.1281              1675.7343                93.4304

                     31                     32                     33
                      A                      A                      A
 Frequencies --   1326.8488              1408.0426              1426.3893
 Red. masses --      1.9687                 1.2869                 1.0984
 Frc consts  --      2.0421                 1.5032                 1.3167
 IR Inten    --    133.3830                65.9637               123.2049

                     34                     35                     36
                      A                      A                      A
 Frequencies --   1473.5803              1478.2426              1487.6056
 Red. masses --      1.1286                 1.1201                 1.1259
 Frc consts  --      1.4439                 1.4421                 1.4680
 IR Inten    --      3.7300                16.5391                30.0489

                     37                     38                     39
                      A                      A                      A
 Frequencies --   1498.6024              1500.8378              1504.0163
 Red. masses --      1.1454                 1.1174                 1.0616
 Frc consts  --      1.5156                 1.4829                 1.4148
 IR Inten    --     35.8360               115.7860                 1.8931

                     40                     41                     42
                      A                      A                      A
 Frequencies --   1505.9905              1515.3759              1545.1093
 Red. masses --      1.0828                 1.2401                 1.2065
 Frc consts  --      1.4469                 1.6779                 1.6971
 IR Inten    --      9.1711               122.3051               500.8395

                     43                     44                     45
                      A                      A                      A
 Frequencies --   1651.5414              1989.7434              2957.4707
 Red. masses --      1.2860                 1.0196                 1.0374
 Frc consts  --      2.0666                 2.3784                 5.3462
 IR Inten    --    420.9721               383.3527                61.1254

                     46                     47                     48
                      A                      A                      A
 Frequencies --   2985.7032              3019.4992              3021.0651
 Red. masses --      1.0372                 1.0592                 1.0692
 Frc consts  --      5.4478                 5.6900                 5.7495
 IR Inten    --     33.3225                 8.4551                42.3692

                     49                     50                     51
                      A                      A                      A
 Frequencies --   3044.4878              3055.0021              3081.1462
 Red. masses --      1.1049                 1.0960                 1.1070
 Frc consts  --      6.0340                 6.0269                 6.1920
 IR Inten    --     23.4649                35.1298                20.1431

                     52                     53                     54
                      A                      A                      A
 Frequencies --   3083.7855              3102.8566              3674.0388
 Red. masses --      1.1000                 1.1039                 1.0640
 Frc consts  --      6.1632                 6.2621                 8.4620
 IR Inten    --     13.8215                16.8380                56.2993

 - Thermochemistry -
 -------------------
 Temperature   298.150 Kelvin.  Pressure   1.00000 Atm.
 Atom     1 has atomic number  6 and mass  12.00000

 Molecular mass:   124.07356 amu.
 Principal axes and moments of inertia in atomic units:
                           1         2         3
     Eigenvalues --   741.516401344.759621617.73868
           X            0.99976   0.02153  -0.00441
           Y           -0.02157   0.99972  -0.01015
           Z            0.00419   0.01025   0.99994
 This molecule is an asymmetric top.
 Rotational symmetry number  1.
 Warning -- assumption of classical behavior for rotation
           may cause significant error
 Rotational temperatures (Kelvin)      0.11681     0.06441     0.05354
 Rotational constants (GHZ):           2.43385     1.34205     1.11560
    1 imaginary frequencies ignored.
 Zero-point vibrational energy     427853.9 (Joules/Mol)
                                  102.25955 (Kcal/Mol)
 Warning -- explicit consideration of  16 degrees of freedom as
           vibrations may cause significant error
 Vibrational temperatures:    119.76   162.44   226.13   245.45   301.68
          (Kelvin)            307.19   355.85   405.03   420.08   466.54
                              506.75   657.20   709.32   770.30   795.03
                              855.27  1029.47  1211.07  1435.49  1488.26
                             1533.39  1587.54  1646.12  1649.66  1689.03
                             1706.08  1716.89  1790.18  1829.54  1909.04
                             2025.86  2052.25  2120.15  2126.86  2140.33
                             2156.15  2159.37  2163.94  2166.78  2180.29
                             2223.06  2376.20  2862.79  4255.14  4295.76
                             4344.38  4346.63  4380.33  4395.46  4433.08
                             4436.87  4464.31  5286.12

 Zero-point correction=                           0.162961 (Hartree/Particle)
 Thermal correction to Energy=                    0.173237
 Thermal correction to Enthalpy=                  0.174181
 Thermal correction to Gibbs Free Energy=         0.128195
 Sum of electronic and zero-point Energies=           -460.543091
 Sum of electronic and thermal Energies=              -460.532815
 Sum of electronic and thermal Enthalpies=            -460.531871
 Sum of electronic and thermal Free Energies=         -460.577857

                     E (Thermal)             CV                S
                      KCal/Mol        Cal/Mol-Kelvin    Cal/Mol-Kelvin
 Total                  108.708             36.835             96.785
 Electronic               0.000              0.000              0.000
 Translational            0.889              2.981             40.361
 Rotational               0.889              2.981             28.869
 Vibrational            106.930             30.873             27.556
 Vibration     1          0.600              1.961              3.813
 Vibration     2          0.607              1.939              3.218
 Vibration     3          0.621              1.895              2.584
 Vibration     4          0.626              1.879              2.429
 Vibration     5          0.642              1.826              2.046
 Vibration     6          0.644              1.820              2.014
 Vibration     7          0.661              1.767              1.750
 Vibration     8          0.681              1.708              1.524
 Vibration     9          0.687              1.689              1.463
 Vibration    10          0.709              1.627              1.289
 Vibration    11          0.729              1.571              1.156
 Vibration    12          0.815              1.346              0.776
 Vibration    13          0.849              1.266              0.676
 Vibration    14          0.890              1.172              0.575
 Vibration    15          0.908              1.134              0.539
 Vibration    16          0.952              1.044              0.459

 Normal termination of Gaussian 09 at Sun Jun  7 20:55:03 2015.
