 Gaussian 09, Revision D.01,
 Gaussian 09:  EM64L-G09RevD.01 24-Apr-2013

 ----------------------------------------------------------------------
 # opt=(calcfc,ts,noeigentest) freq=noraman b3lyp/def2tzvp geom=connect
 ivity
 ----------------------------------------------------------------------

 -------
 ts631oh
 -------
 Symbolic Z-matrix:
 Charge =  0 Multiplicity = 1

 SCF Done:  E(RB3LYP) =  -460.686952514     A.U. after   13 cycles
 SCF Done:  E(RB3LYP) =  -460.701381753     A.U. after   12 cycles
 SCF Done:  E(RB3LYP) =  -460.704179798     A.U. after   12 cycles
 SCF Done:  E(RB3LYP) =  -460.703416319     A.U. after   12 cycles
 SCF Done:  E(RB3LYP) =  -460.705930783     A.U. after   12 cycles
 SCF Done:  E(RB3LYP) =  -460.706188417     A.U. after   12 cycles
 SCF Done:  E(RB3LYP) =  -460.704684209     A.U. after   13 cycles
 SCF Done:  E(RB3LYP) =  -460.705219365     A.U. after   12 cycles
 SCF Done:  E(RB3LYP) =  -460.705593196     A.U. after   12 cycles
 SCF Done:  E(RB3LYP) =  -460.705292534     A.U. after   12 cycles
 SCF Done:  E(RB3LYP) =  -460.707588987     A.U. after    7 cycles
 SCF Done:  E(RB3LYP) =  -460.707589113     A.U. after    7 cycles
 SCF Done:  E(RB3LYP) =  -460.707589150     A.U. after    6 cycles
 SCF Done:  E(RB3LYP) =  -460.707304219     A.U. after   11 cycles
 SCF Done:  E(RB3LYP) =  -460.707555318     A.U. after   11 cycles
 SCF Done:  E(RB3LYP) =  -460.707579816     A.U. after   10 cycles
 SCF Done:  E(RB3LYP) =  -460.707588945     A.U. after   10 cycles
 SCF Done:  E(RB3LYP) =  -460.707589165     A.U. after    7 cycles
 SCF Done:  E(RB3LYP) =  -460.707589168     A.U. after    6 cycles
 Optimization completed.
    -- Stationary point found.

 1\1\GINC-CNODE-5-83\FTS\RB3LYP\def2TZVP\C4H12O4\MLAWAL\05-Jun-2015\0\\
 # opt=(calcfc,ts,noeigentest) freq=noraman b3lyp/def2tzvp geom=connect
 ivity\\ts631oh\\0,1\O,-0.0236935002,0.0077723308,-1.0866639265\O,-1.88
 39943678,-0.8186890732,0.1431002314\H,-1.0443949747,-0.4532743899,-0.6
 58868253\H,-1.0904728136,-0.5868981626,0.9336618856\O,0.0955751814,-0.
 3515273224,1.3836275347\H,0.2046635177,0.4859422606,1.847189725\C,0.94
 57056569,-0.1791322385,-0.2558860184\C,1.6683652759,-1.4989172466,-0.2
 235617888\H,0.9495956679,-2.3087531304,-0.1233024692\H,2.3772497464,-1

 Normal termination of Gaussian 09 at Fri Jun  5 18:14:20 2015.

 --------------------------------------------------------------------
 #N Geom=AllCheck Guess=TCheck SCRF=Check GenChk RB3LYP/def2TZVP Freq
 --------------------------------------------------------------------

 Structure from the checkpoint file:  "/lustre/SCRATCH5/gau/mlawal/918250.sched01/Gau-23085.chk"
 -------
 ts631oh
 -------
 Charge =  0 Multiplicity = 1

                         Standard orientation:
 ---------------------------------------------------------------------
 Center     Atomic      Atomic             Coordinates (Angstroms)
 Number     Number       Type             X           Y           Z
 ---------------------------------------------------------------------
      1          8           0        0.056573    0.112068   -1.075974
      2          8           0       -2.067321   -0.413387   -0.143745
      3          1           0       -1.081575   -0.153951   -0.809032
      4          1           0       -1.340378   -0.463709    0.737965
      5          8           0       -0.192151   -0.558539    1.318620
      6          1           0        0.037703    0.170714    1.904713
      7          6           0        0.860426   -0.387607   -0.199046
      8          6           0        1.277118   -1.830777   -0.292556
      9          1           0        0.395916   -2.462986   -0.371994
     10          1           0        1.861411   -2.123902    0.575546
     11          1           0        1.880046   -1.947277   -1.195953
     12          8           0        1.887639    0.392269    0.210902
     13          6           0       -3.001345    0.654880   -0.056435
     14          1           0       -3.520944    0.755431   -1.010105
     15          1           0       -3.736416    0.435463    0.720080
     16          1           0       -2.510236    1.605763    0.177359
     17          6           0        1.752888    1.804246    0.021518
     18          1           0        2.670153    2.237082    0.413108
     19          1           0        1.636530    2.046929   -1.033295
     20          1           0        0.895344    2.196706    0.572296
 ---------------------------------------------------------------------

 SCF Done:  E(RB3LYP) =  -460.707589168     A.U. after    1 cycles

 The electronic state is 1-A.
 Alpha  occ. eigenvalues --  -19.16362 -19.13289 -19.11027 -19.10937 -10.32770
 Alpha  occ. eigenvalues --  -10.22644 -10.22075 -10.16527  -1.10478  -1.03901
 Alpha  occ. eigenvalues --   -1.00078  -0.96282  -0.76682  -0.70081  -0.69452
 Alpha  occ. eigenvalues --   -0.58712  -0.54134  -0.53617  -0.50540  -0.49067
 Alpha  occ. eigenvalues --   -0.46785  -0.45427  -0.44360  -0.42343  -0.41772
 Alpha  occ. eigenvalues --   -0.39536  -0.39109  -0.36352  -0.35146  -0.34829
 Alpha  occ. eigenvalues --   -0.30393  -0.28942  -0.28432  -0.27671
 Alpha virt. eigenvalues --    0.01290   0.03128   0.05294   0.06216   0.07725
 Alpha virt. eigenvalues --    0.08990   0.09648   0.10521   0.10826   0.11021
 Alpha virt. eigenvalues --    0.12709   0.13199   0.14915   0.15024   0.16906

 Mulliken charges:
               1
     1  O   -0.475935
     2  O   -0.471680
     3  H    0.364057
     4  H    0.362072
     5  O   -0.630485
     6  H    0.299728
     7  C    0.377750
     8  C   -0.256071
     9  H    0.116255
    10  H    0.109829
    11  H    0.110135
    12  O   -0.273307
    13  C   -0.169641
    14  H    0.121010
    15  H    0.118388
    16  H    0.100530
    17  C   -0.158824
    18  H    0.127750
    19  H    0.135782
    20  H    0.092655
 Sum of Mulliken charges =   0.00000

 Dipole moment (field-independent basis, Debye):
    X=             -0.1482    Y=              2.3064    Z=              0.7073  Tot=              2.4170
 Quadrupole moment (field-independent basis, Debye-Ang):
   XX=            -47.0314   YY=            -47.2455   ZZ=            -51.7758
   XY=             -1.8289   XZ=             -0.7090   YZ=              3.0405

  Exact polarizability:  86.160  -0.138  72.583  -1.115   0.492  67.198
 Approx polarizability: 108.048   1.749  93.635  -0.720  -1.368 101.409

 ******    1 imaginary frequencies (negative Signs) ******

                      1                      2                      3
                      A                      A                      A
 Frequencies --  -1300.8505                30.7971                91.6892
 Red. masses --      1.1817                 3.6820                 1.0423
 Frc consts  --      1.1782                 0.0021                 0.0052
 IR Inten    --    222.1724                 2.7376                 0.0186

                      4                      5                      6
                      A                      A                      A
 Frequencies --    120.0936               138.9181               150.5836
 Red. masses --      1.9965                 3.0846                 1.2581
 Frc consts  --      0.0170                 0.0351                 0.0168
 IR Inten    --      0.1090                 7.9412                 1.1699

                      7                      8                      9
                      A                      A                      A
 Frequencies --    156.0321               240.5780               245.1161
 Red. masses --      2.7676                 1.2670                 2.5193
 Frc consts  --      0.0397                 0.0432                 0.0892
 IR Inten    --      1.7811                14.9234                52.7912

                     10                     11                     12
                      A                      A                      A
 Frequencies --    260.9177               332.1598               373.8170
 Red. masses --      3.1611                 3.2983                 5.7652
 Frc consts  --      0.1268                 0.2144                 0.4747
 IR Inten    --      6.2422                34.3542                89.1708

                     13                     14                     15
                      A                      A                      A
 Frequencies --    436.1267               475.3503               527.0733
 Red. masses --      3.5551                 1.5964                 3.1951
 Frc consts  --      0.3984                 0.2125                 0.5230
 IR Inten    --     10.0979                38.5379               148.1935

                     16                     17                     18
                      A                      A                      A
 Frequencies --    587.0531               599.8718               766.8177
 Red. masses --      3.2736                 4.6034                 3.8676
 Frc consts  --      0.6647                 0.9760                 1.3399
 IR Inten    --     53.5249               114.4166               189.8853

                     19                     20                     21
                      A                      A                      A
 Frequencies --    792.9013               847.1434               996.1035
 Red. masses --      1.4891                 2.7141                 2.1545
 Frc consts  --      0.5516                 1.1476                 1.2595
 IR Inten    --    120.2333               113.5333                68.6003

                     22                     23                     24
                      A                      A                      A
 Frequencies --   1048.3114              1086.4155              1092.2606
 Red. masses --      2.4067                 4.5382                 1.9162
 Frc consts  --      1.5583                 3.1559                 1.3469
 IR Inten    --    813.1466               133.4410                72.5158

                     25                     26                     27
                      A                      A                      A
 Frequencies --   1133.6735              1171.1687              1173.5569
 Red. masses --      1.1703                 1.2955                 1.2971
 Frc consts  --      0.8862                 1.0469                 1.0525
 IR Inten    --    822.7015                63.5641                62.7495

                     28                     29                     30
                      A                      A                      A
 Frequencies --   1193.2399              1207.1504              1279.2256
 Red. masses --      1.2454                 1.4476                 3.1131
 Frc consts  --      1.0448                 1.2429                 3.0015
 IR Inten    --    245.7233                 3.2787               451.5668

                     31                     32                     33
                      A                      A                      A
 Frequencies --   1314.1327              1411.2277              1450.8476
 Red. masses --      1.2499                 1.2926                 1.3202
 Frc consts  --      1.2718                 1.5168                 1.6373
 IR Inten    --   1220.4623                69.3003                58.3318

                     34                     35                     36
                      A                      A                      A
 Frequencies --   1468.4387              1473.8023              1482.8462
 Red. masses --      1.1698                 1.1244                 1.0508
 Frc consts  --      1.4862                 1.4390                 1.3613
 IR Inten    --     52.1062                85.3843                 7.0443

                     37                     38                     39
                      A                      A                      A
 Frequencies --   1487.0157              1499.2134              1502.8773
 Red. masses --      1.0524                 1.0557                 1.0500
 Frc consts  --      1.3711                 1.3980                 1.3973
 IR Inten    --      5.0016                 2.7828                 9.9679

                     40                     41                     42
                      A                      A                      A
 Frequencies --   1503.3492              1524.6136              1597.8012
 Red. masses --      1.0689                 1.8573                 1.2051
 Frc consts  --      1.4234                 2.5436                 1.8126
 IR Inten    --     10.8039               294.1254              1457.7458

                     43                     44                     45
                      A                      A                      A
 Frequencies --   1657.7173              1927.1384              3007.6636
 Red. masses --      1.1091                 1.0258                 1.0390
 Frc consts  --      1.7957                 2.2446                 5.5374
 IR Inten    --    331.1520               280.4059                40.6439

                     46                     47                     48
                      A                      A                      A
 Frequencies --   3038.5214              3053.5497              3072.6735
 Red. masses --      1.0362                 1.0408                 1.0946
 Frc consts  --      5.6367                 5.7176                 6.0891
 IR Inten    --     35.9204                 9.3252                41.2823

                     49                     50                     51
                      A                      A                      A
 Frequencies --   3099.5346              3111.1985              3128.9270
 Red. masses --      1.1055                 1.0979                 1.0941
 Frc consts  --      6.2576                 6.2614                 6.3109
 IR Inten    --     25.8269                26.0046                 8.5308

                     52                     53                     54
                      A                      A                      A
 Frequencies --   3147.4127              3159.9241              3821.6414
 Red. masses --      1.1063                 1.1047                 1.0666
 Frc consts  --      6.4570                 6.4987                 9.1778
 IR Inten    --     14.4333                 8.9453                24.9619

 - Thermochemistry -
 -------------------
 Temperature   298.150 Kelvin.  Pressure   1.00000 Atm.
 Atom     1 has atomic number  8 and mass  15.99491

 Molecular mass:   124.07356 amu.
 Principal axes and moments of inertia in atomic units:
                           1         2         3
     Eigenvalues --   669.825531471.507271721.44222
           X            0.99976  -0.02137  -0.00396
           Y            0.02147   0.99934   0.02917
           Z            0.00334  -0.02925   0.99957
 This molecule is an asymmetric top.
 Rotational symmetry number  1.
 Warning -- assumption of classical behavior for rotation
           may cause significant error
 Rotational temperatures (Kelvin)      0.12931     0.05886     0.05031
 Rotational constants (GHZ):           2.69435     1.22646     1.04839
    1 imaginary frequencies ignored.
 Zero-point vibrational energy     427642.3 (Joules/Mol)
                                  102.20897 (Kcal/Mol)
 Warning -- explicit consideration of  16 degrees of freedom as
           vibrations may cause significant error
 Vibrational temperatures:     44.31   131.92   172.79   199.87   216.66
          (Kelvin)            224.50   346.14   352.67   375.40   477.90
                              537.84   627.49   683.92   758.34   844.64
                              863.08  1103.28  1140.81  1218.85  1433.17
                             1508.28  1563.11  1571.52  1631.10  1685.05
                             1688.48  1716.80  1736.82  1840.52  1890.74
                             2030.44  2087.44  2112.75  2120.47  2133.48
                             2139.48  2157.03  2162.30  2162.98  2193.58
                             2298.88  2385.08  2772.72  4327.35  4371.75
                             4393.37  4420.89  4459.53  4476.32  4501.82
                             4528.42  4546.42  5498.48

 Zero-point correction=                           0.162880 (Hartree/Particle)
 Thermal correction to Energy=                    0.173738
 Thermal correction to Enthalpy=                  0.174682
 Thermal correction to Gibbs Free Energy=         0.126301
 Sum of electronic and zero-point Energies=           -460.544709
 Sum of electronic and thermal Energies=              -460.533852
 Sum of electronic and thermal Enthalpies=            -460.532907
 Sum of electronic and thermal Free Energies=         -460.581288

                     E (Thermal)             CV                S
                      KCal/Mol        Cal/Mol-Kelvin    Cal/Mol-Kelvin
 Total                  109.022             37.514            101.825
 Electronic               0.000              0.000              0.000
 Translational            0.889              2.981             40.361
 Rotational               0.889              2.981             28.919
 Vibrational            107.245             31.553             32.545
 Vibration     1          0.594              1.984              5.777
 Vibration     2          0.602              1.955              3.624
 Vibration     3          0.609              1.933              3.099
 Vibration     4          0.615              1.914              2.819
 Vibration     5          0.618              1.902              2.665
 Vibration     6          0.620              1.896              2.597
 Vibration     7          0.658              1.778              1.799
 Vibration     8          0.660              1.771              1.765
 Vibration     9          0.669              1.744              1.656
 Vibration    10          0.714              1.611              1.250
 Vibration    11          0.745              1.526              1.064
 Vibration    12          0.797              1.391              0.839
 Vibration    13          0.832              1.305              0.723
 Vibration    14          0.882              1.190              0.594
 Vibration    15          0.944              1.059              0.472
 Vibration    16          0.958              1.032              0.450

 Normal termination of Gaussian 09 at Fri Jun  5 18:35:18 2015.
