 Gaussian 09, Revision D.01,
 Gaussian 09:  EM64L-G09RevD.01 24-Apr-2013

 ----------------------------------------------------------------------
 # opt=(calcfc,ts,noeigentest) freq=noraman b3lyp/def2tzvp geom=connect
 ivity
 ----------------------------------------------------------------------

 -------
 ts632oh
 -------
 Symbolic Z-matrix:
 Charge =  0 Multiplicity = 1

 SCF Done:  E(RB3LYP) =  -460.688707256     A.U. after   13 cycles
 SCF Done:  E(RB3LYP) =  -460.701799869     A.U. after   12 cycles
 SCF Done:  E(RB3LYP) =  -460.707227003     A.U. after   12 cycles
 SCF Done:  E(RB3LYP) =  -460.706268409     A.U. after   12 cycles
 SCF Done:  E(RB3LYP) =  -460.707438806     A.U. after   12 cycles
 SCF Done:  E(RB3LYP) =  -460.706728737     A.U. after   13 cycles
 SCF Done:  E(RB3LYP) =  -460.706019999     A.U. after   13 cycles
 SCF Done:  E(RB3LYP) =  -460.707032190     A.U. after   12 cycles
 SCF Done:  E(RB3LYP) =  -460.705918961     A.U. after   12 cycles
 SCF Done:  E(RB3LYP) =  -460.705482291     A.U. after   12 cycles
 SCF Done:  E(RB3LYP) =  -460.709525599     A.U. after    7 cycles
 SCF Done:  E(RB3LYP) =  -460.709525953     A.U. after    7 cycles
 SCF Done:  E(RB3LYP) =  -460.709526223     A.U. after    6 cycles
 SCF Done:  E(RB3LYP) =  -460.709526793     A.U. after    7 cycles
 SCF Done:  E(RB3LYP) =  -460.709526779     A.U. after    7 cycles
 SCF Done:  E(RB3LYP) =  -460.709526904     A.U. after    6 cycles
 SCF Done:  E(RB3LYP) =  -460.709527086     A.U. after    7 cycles
 SCF Done:  E(RB3LYP) =  -460.709527143     A.U. after    6 cycles
 SCF Done:  E(RB3LYP) =  -460.709527137     A.U. after    6 cycles
 Optimization completed.
    -- Stationary point found.

 1\1\GINC-CNODE-4-33\FTS\RB3LYP\def2TZVP\C4H12O4\MLAWAL\05-Jun-2015\0\\
 # opt=(calcfc,ts,noeigentest) freq=noraman b3lyp/def2tzvp geom=connect
 ivity\\ts632oh\\0,1\O,0.0858612349,-0.2031315739,-1.1225591664\O,-1.92
 74181968,0.3864553421,-0.0024777243\H,-1.0190352856,0.1606601972,-0.73
 71946811\H,-1.2119101708,0.0241135713,0.8251739861\O,-0.1326973288,-0.
 4439177107,1.3126282948\H,0.2776992031,0.1079169649,1.9881383183\C,0.9
 245899591,-0.3120232777,-0.1512153841\C,1.7156854095,-1.5865075878,-0.
 0275648888\H,1.0368295013,-2.4349184486,-0.0162277655\H,2.3230012679,-

 Normal termination of Gaussian 09 at Fri Jun  5 17:44:52 2015.

 --------------------------------------------------------------------
 #N Geom=AllCheck Guess=TCheck SCRF=Check GenChk RB3LYP/def2TZVP Freq
 --------------------------------------------------------------------

 Structure from the checkpoint file:  "/lustre/SCRATCH5/gau/mlawal/918252.sched01/Gau-32687.chk"
 -------
 ts632oh
 -------
 Charge =  0 Multiplicity = 1

                         Standard orientation:
 ---------------------------------------------------------------------
 Center     Atomic      Atomic             Coordinates (Angstroms)
 Number     Number       Type             X           Y           Z
 ---------------------------------------------------------------------
      1          8           0        0.044368   -0.105257   -1.132771
      2          8           0       -1.864565    0.599648    0.097909
      3          1           0       -1.000317    0.348262   -0.680444
      4          1           0       -1.193840    0.054067    0.859958
      5          8           0       -0.179512   -0.601789    1.262895
      6          1           0        0.305473   -0.190271    1.987259
      7          6           0        0.871483   -0.433876   -0.201792
      8          6           0        1.492195   -1.804341   -0.246216
      9          1           0        0.709411   -2.554761   -0.316173
     10          1           0        2.103334   -1.987604    0.634853
     11          1           0        2.122632   -1.860808   -1.136030
     12          8           0        1.791496    0.490958    0.215057
     13          6           0       -3.084513   -0.087019   -0.175709
     14          1           0       -2.912115   -1.153627   -0.344846
     15          1           0       -3.764639    0.035842    0.668164
     16          1           0       -3.545268    0.345055   -1.064631
     17          6           0        1.483420    1.866275   -0.028016
     18          1           0        2.349512    2.425274    0.318177
     19          1           0        1.318298    2.044294   -1.089913
     20          1           0        0.597708    2.179563    0.529303
 ---------------------------------------------------------------------

 SCF Done:  E(RB3LYP) =  -460.709527137     A.U. after    1 cycles

 The electronic state is 1-A.
 Alpha  occ. eigenvalues --  -19.15571 -19.13823 -19.11967 -19.10174 -10.32478
 Alpha  occ. eigenvalues --  -10.22029 -10.21995 -10.16445  -1.09679  -1.03960
 Alpha  occ. eigenvalues --   -0.99668  -0.97302  -0.76335  -0.69608  -0.69439
 Alpha  occ. eigenvalues --   -0.57842  -0.54454  -0.54025  -0.50629  -0.48342
 Alpha  occ. eigenvalues --   -0.46688  -0.44942  -0.44737  -0.42535  -0.41548
 Alpha  occ. eigenvalues --   -0.39434  -0.39172  -0.36124  -0.35258  -0.34388
 Alpha  occ. eigenvalues --   -0.29528  -0.29308  -0.28833  -0.27870
 Alpha virt. eigenvalues --    0.02244   0.03741   0.05383   0.06264   0.07921
 Alpha virt. eigenvalues --    0.09038   0.09920   0.10621   0.10884   0.11123
 Alpha virt. eigenvalues --    0.13015   0.13399   0.14008   0.15642   0.17455

 Mulliken charges:
               1
     1  O   -0.494942
     2  O   -0.465382
     3  H    0.364909
     4  H    0.348661
     5  O   -0.603977
     6  H    0.308423
     7  C    0.379433
     8  C   -0.247483
     9  H    0.111195
    10  H    0.099087
    11  H    0.109136
    12  O   -0.283369
    13  C   -0.162943
    14  H    0.117073
    15  H    0.115637
    16  H    0.119769
    17  C   -0.192116
    18  H    0.125306
    19  H    0.134495
    20  H    0.117088
 Sum of Mulliken charges =   0.00000

 Dipole moment (field-independent basis, Debye):
    X=             -0.4325    Y=              0.5627    Z=              0.9983  Tot=              1.2249
 Quadrupole moment (field-independent basis, Debye-Ang):
   XX=            -45.6466   YY=            -48.4482   ZZ=            -50.7810
   XY=              1.9115   XZ=              1.0491   YZ=              1.1562

  Exact polarizability:  85.419  -0.702  72.317  -0.249  -0.144  67.083
 Approx polarizability: 106.615  -0.873  93.181   0.317  -1.722 101.002

 ******    1 imaginary frequencies (negative Signs) ******

                      1                      2                      3
                      A                      A                      A
 Frequencies --  -1323.5123                42.3281                91.1883
 Red. masses --      1.1815                 3.7973                 1.0489
 Frc consts  --      1.2194                 0.0040                 0.0051
 IR Inten    --    187.0445                 1.0709                 0.1832

                      4                      5                      6
                      A                      A                      A
 Frequencies --    123.1052               140.4706               149.1336
 Red. masses --      2.3596                 2.9788                 1.6050
 Frc consts  --      0.0211                 0.0346                 0.0210
 IR Inten    --      2.0303                 6.0071                 3.0383

                      7                      8                      9
                      A                      A                      A
 Frequencies --    167.1889               225.1913               273.1052
 Red. masses --      1.7646                 1.0647                 3.2505
 Frc consts  --      0.0291                 0.0318                 0.1428
 IR Inten    --      1.0539                 0.7818                 8.1629

                     10                     11                     12
                      A                      A                      A
 Frequencies --    287.8329               317.7682               348.9014
 Red. masses --      3.4279                 3.9259                 4.5742
 Frc consts  --      0.1673                 0.2336                 0.3281
 IR Inten    --     19.1258                73.8403                85.5027

                     13                     14                     15
                      A                      A                      A
 Frequencies --    435.9178               528.0085               541.4581
 Red. masses --      3.4413                 2.4808                 2.3125
 Frc consts  --      0.3853                 0.4075                 0.3995
 IR Inten    --     37.1879                24.0695               116.4994

                     16                     17                     18
                      A                      A                      A
 Frequencies --    587.7613               635.3111               719.1731
 Red. masses --      2.3767                 4.7325                 3.9029
 Frc consts  --      0.4838                 1.1254                 1.1893
 IR Inten    --     80.5930                20.8449               264.1364

                     19                     20                     21
                      A                      A                      A
 Frequencies --    791.0891               876.2135               997.9348
 Red. masses --      2.5312                 1.5477                 2.1296
 Frc consts  --      0.9333                 0.7001                 1.2495
 IR Inten    --    111.1420                77.3054                36.9469

                     22                     23                     24
                      A                      A                      A
 Frequencies --   1045.1279              1079.1151              1090.6561
 Red. masses --      2.7899                 5.2957                 2.0072
 Frc consts  --      1.7955                 3.6333                 1.4067
 IR Inten    --    601.3842                24.6340                62.5110

                     25                     26                     27
                      A                      A                      A
 Frequencies --   1152.2863              1172.3926              1175.1878
 Red. masses --      1.2060                 1.2844                 1.2863
 Frc consts  --      0.9434                 1.0402                 1.0466
 IR Inten    --     37.6309                32.4480                49.1640

                     28                     29                     30
                      A                      A                      A
 Frequencies --   1206.5427              1225.7688              1267.6015
 Red. masses --      1.4239                 1.9935                 1.0988
 Frc consts  --      1.2213                 1.7648                 1.0402
 IR Inten    --    101.2361              1210.0986               152.2737

                     31                     32                     33
                      A                      A                      A
 Frequencies --   1293.2733              1406.4275              1457.7293
 Red. masses --      1.6180                 1.2926                 1.5173
 Frc consts  --      1.5944                 1.5064                 1.8997
 IR Inten    --   2116.5382                85.5246                44.1049

                     34                     35                     36
                      A                      A                      A
 Frequencies --   1470.2127              1479.6105              1488.0630
 Red. masses --      1.1077                 1.0464                 1.0831
 Frc consts  --      1.4107                 1.3497                 1.4131
 IR Inten    --     14.0729                 2.5223                31.3953

                     37                     38                     39
                      A                      A                      A
 Frequencies --   1494.5465              1500.5199              1502.1602
 Red. masses --      1.1259                 1.1075                 1.0640
 Frc consts  --      1.4817                 1.4691                 1.4146
 IR Inten    --     27.7246                35.5480                 0.9831

                     40                     41                     42
                      A                      A                      A
 Frequencies --   1509.0449              1537.5888              1570.4501
 Red. masses --      1.0510                 1.1546                 1.5960
 Frc consts  --      1.4102                 1.6083                 2.3192
 IR Inten    --     23.7959               109.1960               530.6912

                     43                     44                     45
                      A                      A                      A
 Frequencies --   1601.3420              1939.1208              3022.8178
 Red. masses --      1.1309                 1.0207                 1.0328
 Frc consts  --      1.7086                 2.2613                 5.5605
 IR Inten    --    764.5486               392.8635                32.4541

                     46                     47                     48
                      A                      A                      A
 Frequencies --   3036.9118              3055.3769              3087.4303
 Red. masses --      1.0350                 1.0395                 1.1016
 Frc consts  --      5.6242                 5.7175                 6.1868
 IR Inten    --     34.9786                 8.5284                34.1543

                     49                     50                     51
                      A                      A                      A
 Frequencies --   3105.4640              3107.6180              3126.8378
 Red. masses --      1.1063                 1.1002                 1.0961
 Frc consts  --      6.2863                 6.2598                 6.3138
 IR Inten    --     24.5082                23.7539                11.4262

                     52                     53                     54
                      A                      A                      A
 Frequencies --   3143.1654              3158.4339              3814.4985
 Red. masses --      1.1053                 1.1039                 1.0665
 Frc consts  --      6.4336                 6.4880                 9.1432
 IR Inten    --     16.1728                10.4788                37.1481

 - Thermochemistry -
 -------------------
 Temperature   298.150 Kelvin.  Pressure   1.00000 Atm.
 Atom     1 has atomic number  8 and mass  15.99491

 Molecular mass:   124.07356 amu.
 Principal axes and moments of inertia in atomic units:
                           1         2         3
     Eigenvalues --   672.058761420.801721672.87828
           X            0.99998   0.00606   0.00304
           Y           -0.00609   0.99991   0.01185
           Z           -0.00296  -0.01187   0.99993
 This molecule is an asymmetric top.
 Rotational symmetry number  1.
 Warning -- assumption of classical behavior for rotation
           may cause significant error
 Rotational temperatures (Kelvin)      0.12888     0.06096     0.05178
 Rotational constants (GHZ):           2.68539     1.27023     1.07882
    1 imaginary frequencies ignored.
 Zero-point vibrational energy     428277.5 (Joules/Mol)
                                  102.36077 (Kcal/Mol)
 Warning -- explicit consideration of  15 degrees of freedom as
           vibrations may cause significant error
 Vibrational temperatures:     60.90   131.20   177.12   202.11   214.57
          (Kelvin)            240.55   324.00   392.94   414.13   457.20
                              501.99   627.19   759.69   779.04   845.66
                              914.07  1034.73  1138.20  1260.67  1435.80
                             1503.70  1552.60  1569.21  1657.88  1686.81
                             1690.83  1735.94  1763.61  1823.79  1860.73
                             2023.53  2097.34  2115.31  2128.83  2140.99
                             2150.32  2158.91  2161.27  2171.18  2212.24
                             2259.52  2303.97  2789.96  4349.16  4369.43
                             4396.00  4442.12  4468.06  4471.16  4498.82
                             4522.31  4544.28  5488.21

 Zero-point correction=                           0.163122 (Hartree/Particle)
 Thermal correction to Energy=                    0.173865
 Thermal correction to Enthalpy=                  0.174809
 Thermal correction to Gibbs Free Energy=         0.126958
 Sum of electronic and zero-point Energies=           -460.546405
 Sum of electronic and thermal Energies=              -460.535662
 Sum of electronic and thermal Enthalpies=            -460.534718
 Sum of electronic and thermal Free Energies=         -460.582569

                     E (Thermal)             CV                S
                      KCal/Mol        Cal/Mol-Kelvin    Cal/Mol-Kelvin
 Total                  109.102             37.319            100.712
 Electronic               0.000              0.000              0.000
 Translational            0.889              2.981             40.361
 Rotational               0.889              2.981             28.859
 Vibrational            107.325             31.358             31.492
 Vibration     1          0.595              1.980              5.147
 Vibration     2          0.602              1.955              3.634
 Vibration     3          0.610              1.930              3.051
 Vibration     4          0.615              1.913              2.797
 Vibration     5          0.618              1.904              2.683
 Vibration     6          0.624              1.883              2.467
 Vibration     7          0.650              1.803              1.917
 Vibration     8          0.676              1.723              1.576
 Vibration     9          0.685              1.696              1.487
 Vibration    10          0.704              1.640              1.322
 Vibration    11          0.726              1.577              1.171
 Vibration    12          0.796              1.392              0.840
 Vibration    13          0.883              1.188              0.592
 Vibration    14          0.897              1.158              0.562
 Vibration    15          0.945              1.058              0.471

 Normal termination of Gaussian 09 at Fri Jun  5 18:06:37 2015.
