 Gaussian 09, Revision D.01,
 Gaussian 09:  EM64L-G09RevD.01 24-Apr-2013

 ----------------------------------------------------------
 # opt freq b3lyp/gen geom=connectivity gfinput pseudo=read
 ----------------------------------------------------------

 -----------------------
 gen calculation BrAc-C H O=6-31+g(d)/Br=Def2TZVP
 -----------------------
 Symbolic Z-matrix:
 Charge =  0 Multiplicity = 1

 SCF Done:  E(RB3LYP) =  -2727.43681742     A.U. after   12 cycles
 SCF Done:  E(RB3LYP) =  -2727.43783105     A.U. after   10 cycles
 SCF Done:  E(RB3LYP) =  -2727.43791919     A.U. after    9 cycles
 SCF Done:  E(RB3LYP) =  -2727.43785993     A.U. after   10 cycles
 SCF Done:  E(RB3LYP) =  -2727.43792592     A.U. after   10 cycles
 Optimization completed.
    -- Stationary point found.
 Normal termination of Gaussian 09 at Wed Feb 25 14:51:51 2015.

 ------------------------------------------------------------------
 #N Geom=AllCheck Guess=TCheck SCRF=Check GenChk RB3LYP/ChkBas Freq
 ------------------------------------------------------------------

 Structure from the checkpoint file:  "/lustre/SCRATCH5/gau/Gau-9225.chk"
 -----------------------
 gen calculation BrAc-C H O=6-31+g(d)/Br=Def2TZVP
 -----------------------
 Charge =  0 Multiplicity = 1

                         Standard orientation:
 ---------------------------------------------------------------------
 Center     Atomic      Atomic             Coordinates (Angstroms)
 Number     Number       Type             X           Y           Z
 ---------------------------------------------------------------------
      1          6           0        1.008030    0.237690   -0.000109
      2          6           0        1.766526   -1.061383    0.000009
      3          1           0        1.491625   -1.646891    0.883116
      4          1           0        1.491257   -1.647352   -0.882667
      5          1           0        2.839563   -0.851945   -0.000240
      6          8           0        1.447680    1.341960    0.000032
      7         35           0       -0.972892   -0.047067    0.000004
 ---------------------------------------------------------------------

 SCF Done:  E(RB3LYP) =  -2727.43792592     A.U. after    1 cycles

 The electronic state is 1-A.
 Alpha  occ. eigenvalues -- -482.85997 -62.50806 -56.32389 -56.32103 -56.32058
 Alpha  occ. eigenvalues --  -19.20447 -10.35078 -10.22651  -8.69899  -6.52753
 Alpha  occ. eigenvalues --   -6.51854  -6.51723  -2.64227  -2.63996  -2.63894
 Alpha  occ. eigenvalues --   -2.63172  -2.63169  -1.11200  -0.81337  -0.76338
 Alpha  occ. eigenvalues --   -0.57018  -0.49795  -0.48636  -0.48575  -0.42513
 Alpha  occ. eigenvalues --   -0.41337  -0.30868  -0.30572  -0.29506
 Alpha virt. eigenvalues --   -0.05660  -0.02816   0.00183   0.03632   0.04559
 Alpha virt. eigenvalues --    0.04833   0.07989   0.08458   0.08816   0.11615
 Alpha virt. eigenvalues --    0.15105   0.16391   0.22147   0.22820   0.22910

 Mulliken charges:
               1
     1  C    0.508176
     2  C   -0.772458
     3  H    0.250590
     4  H    0.250576
     5  H    0.240789
     6  O   -0.300803
     7  Br  -0.176869
 Sum of Mulliken charges =   0.00000

 Dipole moment (field-independent basis, Debye):
    X=              1.4230    Y=             -2.5571    Z=              0.0000  Tot=              2.9264
 Quadrupole moment (field-independent basis, Debye-Ang):
   XX=            -34.4070   YY=            -38.2521   ZZ=            -35.7113
   XY=             -4.3742   XZ=             -0.0002   YZ=             -0.0003

  Exact polarizability:  64.310   2.618  46.686   0.000   0.000  35.375
 Approx polarizability: 102.690  14.843  73.264   0.000   0.000  52.674

                      1                      2                      3
                      A                      A                      A
 Frequencies --    131.7789               296.2302               336.1111
 Red. masses --      1.0445                 3.4454                14.5955
 Frc consts  --      0.0107                 0.1781                 0.9715
 IR Inten    --      0.0750                 7.7444                14.8540

                      4                      5                      6
                      A                      A                      A
 Frequencies --    493.8600               569.1966               953.9160
 Red. masses --      3.1434                 4.1440                 2.9970
 Frc consts  --      0.4517                 0.7910                 1.6068
 IR Inten    --      1.0312               117.4975                75.4744

                      7                      8                      9
                      A                      A                      A
 Frequencies --   1048.3424              1113.3061              1408.2828
 Red. masses --      1.5564                 1.8698                 1.2371
 Frc consts  --      1.0078                 1.3655                 1.4456
 IR Inten    --      1.6612               146.7431                23.3546

                     10                     11                     12
                      A                      A                      A
 Frequencies --   1485.2307              1485.7084              1893.1125
 Red. masses --      1.0451                 1.0476                12.0311
 Frc consts  --      1.3583                 1.3625                25.4044
 IR Inten    --     16.8812                12.7068               388.1260

                     13                     14                     15
                      A                      A                      A
 Frequencies --   3068.8852              3143.0142              3163.6251
 Red. masses --      1.0329                 1.1010                 1.1064
 Frc consts  --      5.7315                 6.4079                 6.5244
 IR Inten    --      1.1266                 0.0782                 6.9334

 - Thermochemistry -
 -------------------
 Temperature   298.150 Kelvin.  Pressure   1.00000 Atm.
 Atom     1 has atomic number  6 and mass  12.00000

 Molecular mass:   121.93673 amu.
 Principal axes and moments of inertia in atomic units:
                           1         2         3
     Eigenvalues --   179.57948 610.20358 778.56139
           X            0.99773  -0.06741   0.00000
           Y            0.06741   0.99773   0.00000
           Z            0.00000   0.00000   1.00000
 This molecule is an asymmetric top.
 Rotational symmetry number  1.
 Rotational temperatures (Kelvin)      0.48231     0.14194     0.11125
 Rotational constants (GHZ):          10.04982     2.95761     2.31805
 Zero-point vibrational energy     123159.1 (Joules/Mol)
                                   29.43574 (Kcal/Mol)
 Warning -- explicit consideration of   5 degrees of freedom as
           vibrations may cause significant error
 Vibrational temperatures:    189.60   426.21   483.59   710.55   818.95
          (Kelvin)           1372.47  1508.33  1601.80  2026.20  2136.91
                             2137.60  2723.76  4415.44  4522.09  4551.75

 Zero-point correction=                           0.046909 (Hartree/Particle)
 Thermal correction to Energy=                    0.051742
 Thermal correction to Enthalpy=                  0.052686
 Thermal correction to Gibbs Free Energy=         0.017850
 Sum of electronic and zero-point Energies=          -2727.391017
 Sum of electronic and thermal Energies=             -2727.386184
 Sum of electronic and thermal Enthalpies=           -2727.385240
 Sum of electronic and thermal Free Energies=        -2727.420076

                     E (Thermal)             CV                S
                      KCal/Mol        Cal/Mol-Kelvin    Cal/Mol-Kelvin
 Total                   32.469             14.834             73.318
 Electronic               0.000              0.000              0.000
 Translational            0.889              2.981             40.309
 Rotational               0.889              2.981             25.948
 Vibrational             30.691              8.872              7.061
 Vibration     1          0.612              1.922              2.920
 Vibration     2          0.690              1.681              1.438
 Vibration     3          0.717              1.603              1.231
 Vibration     4          0.850              1.264              0.674
 Vibration     5          0.925              1.098              0.506

 Optimization completed.
    -- Stationary point found.
 Normal termination of Gaussian 09 at Wed Feb 25 14:52:14 2015.
