 Gaussian 09, Revision D.01,
 Gaussian 09:  EM64L-G09RevD.01 24-Apr-2013

 ----------------------------------------------
 # opt freq b3lyp/aug-cc-pvtz geom=connectivity
 ----------------------------------------------

 ------------
 BrAc-cc-pvtz
 ------------
 Symbolic Z-matrix:
 Charge =  0 Multiplicity = 1

 SCF Done:  E(RB3LYP) =  -2727.54162640     A.U. after   12 cycles
 SCF Done:  E(RB3LYP) =  -2727.54288924     A.U. after   10 cycles
 SCF Done:  E(RB3LYP) =  -2727.54299798     A.U. after    9 cycles
 SCF Done:  E(RB3LYP) =  -2727.54294034     A.U. after    9 cycles
 SCF Done:  E(RB3LYP) =  -2727.54300498     A.U. after    9 cycles
 Optimization completed.
    -- Stationary point found.
 Normal termination of Gaussian 09 at Tue Mar 24 09:44:22 2015.

 ----------------------------------------------------------------------
 #N Geom=AllCheck Guess=TCheck SCRF=Check GenChk RB3LYP/Aug-CC-pVTZ Fre
 q
 ----------------------------------------------------------------------

 Structure from the checkpoint file:  "/lustre/SCRATCH5/gau/mlawal/845859.sched01/Gau-23478.chk"
 ------------
 BrAc-cc-pvtz
 ------------
 Charge =  0 Multiplicity = 1

                         Standard orientation:
 ---------------------------------------------------------------------
 Center     Atomic      Atomic             Coordinates (Angstroms)
 Number     Number       Type             X           Y           Z
 ---------------------------------------------------------------------
      1          6           0        1.019013    0.238729    0.000091
      2          6           0        1.762285   -1.060975   -0.000166
      3          1           0        1.478921   -1.638992    0.878069
      4          1           0        1.477902   -1.639368   -0.877816
      5          1           0        2.831500   -0.861690   -0.000800
      6          8           0        1.453676    1.332673   -0.000242
      7         35           0       -0.974443   -0.045367    0.000084
 ---------------------------------------------------------------------

 SCF Done:  E(RB3LYP) =  -2727.54300498     A.U. after    1 cycles

 The electronic state is 1-A.
 Alpha  occ. eigenvalues -- -482.86524 -62.51216 -56.32803 -56.32528 -56.32485
 Alpha  occ. eigenvalues --  -19.18082 -10.33649 -10.21844  -8.69952  -6.52708
 Alpha  occ. eigenvalues --   -6.51823  -6.51695  -2.64261  -2.64035  -2.63936
 Alpha  occ. eigenvalues --   -2.63226  -2.63223  -1.11577  -0.81243  -0.76312
 Alpha  occ. eigenvalues --   -0.57005  -0.50049  -0.48926  -0.48921  -0.42627
 Alpha  occ. eigenvalues --   -0.41603  -0.30819  -0.30429  -0.29439
 Alpha virt. eigenvalues --   -0.05659  -0.03322  -0.01488   0.01321   0.01645
 Alpha virt. eigenvalues --    0.02177   0.04480   0.05885   0.06315   0.06395
 Alpha virt. eigenvalues --    0.06747   0.07770   0.09145   0.09474   0.09816

 Mulliken charges:
               1
     1  C    0.344335
     2  C   -0.517195
     3  H    0.270775
     4  H    0.270807
     5  H    0.221961
     6  O   -0.471921
     7  Br  -0.118762
 Sum of Mulliken charges =   0.00000

 Dipole moment (field-independent basis, Debye):
    X=              1.5972    Y=             -2.4232    Z=              0.0001  Tot=              2.9022
 Quadrupole moment (field-independent basis, Debye-Ang):
   XX=            -34.4486   YY=            -37.9729   ZZ=            -35.6913
   XY=             -4.2786   XZ=              0.0008   YZ=              0.0009

  Exact polarizability:  70.042   1.616  51.128  -0.006  -0.003  39.926
 Approx polarizability: 110.886  13.030  79.315  -0.004  -0.005  60.080

                      1                      2                      3
                      A                      A                      A
 Frequencies --    128.2232               294.0133               332.0573
 Red. masses --      1.0432                 3.4464                14.0859
 Frc consts  --      0.0101                 0.1755                 0.9151
 IR Inten    --      0.0428                 8.6627                17.4506

                      4                      5                      6
                      A                      A                      A
 Frequencies --    495.2748               566.3309               943.3277
 Red. masses --      3.0579                 4.1278                 3.0970
 Frc consts  --      0.4419                 0.7800                 1.6237
 IR Inten    --      1.0138               118.7807                77.3407

                      7                      8                      9
                      A                      A                      A
 Frequencies --   1041.0863              1101.1102              1386.7469
 Red. masses --      1.5821                 1.8458                 1.2354
 Frc consts  --      1.0103                 1.3186                 1.3997
 IR Inten    --      1.7673               141.1364                21.3039

                     10                     11                     12
                      A                      A                      A
 Frequencies --   1462.4846              1463.2620              1892.6460
 Red. masses --      1.0446                 1.0479                12.0907
 Frc consts  --      1.3164                 1.3220                25.5176
 IR Inten    --     14.3355                10.6891               392.7146

                     13                     14                     15
                      A                      A                      A
 Frequencies --   3052.5440              3123.7093              3143.6857
 Red. masses --      1.0322                 1.1001                 1.1063
 Frc consts  --      5.6668                 6.3244                 6.4417
 IR Inten    --      1.0742                 0.0048                 6.6797

 - Thermochemistry -
 -------------------
 Temperature   298.150 Kelvin.  Pressure   1.00000 Atm.
 Atom     1 has atomic number  6 and mass  12.00000

 Molecular mass:   121.93673 amu.
 Principal axes and moments of inertia in atomic units:
                           1         2         3
     Eigenvalues --   177.95127 611.82927 778.68432
           X            0.99779  -0.06642   0.00009
           Y            0.06642   0.99779   0.00004
           Z           -0.00009  -0.00003   1.00000
 This molecule is an asymmetric top.
 Rotational symmetry number  1.
 Rotational temperatures (Kelvin)      0.48673     0.14157     0.11123
 Rotational constants (GHZ):          10.14177     2.94975     2.31768
 Zero-point vibrational energy     122177.6 (Joules/Mol)
                                   29.20115 (Kcal/Mol)
 Warning -- explicit consideration of   5 degrees of freedom as
           vibrations may cause significant error
 Vibrational temperatures:    184.48   423.02   477.76   712.59   814.82
          (Kelvin)           1357.24  1497.89  1584.25  1995.22  2104.19
                             2105.30  2723.09  4391.92  4494.32  4523.06

 Zero-point correction=                           0.046535 (Hartree/Particle)
 Thermal correction to Energy=                    0.051388
 Thermal correction to Enthalpy=                  0.052332
 Thermal correction to Gibbs Free Energy=         0.017451
 Sum of electronic and zero-point Energies=          -2727.496470
 Sum of electronic and thermal Energies=             -2727.491617
 Sum of electronic and thermal Enthalpies=           -2727.490673
 Sum of electronic and thermal Free Energies=        -2727.525554

                     E (Thermal)             CV                S
                      KCal/Mol        Cal/Mol-Kelvin    Cal/Mol-Kelvin
 Total                   32.247             14.904             73.413
 Electronic               0.000              0.000              0.000
 Translational            0.889              2.981             40.309
 Rotational               0.889              2.981             25.942
 Vibrational             30.469              8.942              7.162
 Vibration     1          0.611              1.925              2.973
 Vibration     2          0.689              1.685              1.451
 Vibration     3          0.714              1.611              1.250
 Vibration     4          0.851              1.261              0.670
 Vibration     5          0.922              1.104              0.511

 Normal termination of Gaussian 09 at Tue Mar 24 10:07:06 2015.
