 Gaussian 09, Revision D.01,
 Gaussian 09:  EM64L-G09RevD.01 24-Apr-2013

 -------------------------------------------------------------
 # opt freq b3lyp/genecp geom=connectivity gfinput pseudo=read
 -------------------------------------------------------------

 --------------------------------------------------
 gen calculation BrAc-C H O=aug-cc-pvtz/Br=Def2tzvp
 --------------------------------------------------
 Symbolic Z-matrix:
 Charge =  0 Multiplicity = 1

 SCF Done:  E(RB3LYP) =  -2727.49530734     A.U. after   12 cycles
 SCF Done:  E(RB3LYP) =  -2727.49656317     A.U. after   10 cycles
 SCF Done:  E(RB3LYP) =  -2727.49666987     A.U. after    9 cycles
 SCF Done:  E(RB3LYP) =  -2727.49660966     A.U. after    9 cycles
 SCF Done:  E(RB3LYP) =  -2727.49667675     A.U. after    9 cycles
 Optimization completed.
    -- Stationary point found.
 Normal termination of Gaussian 09 at Wed Mar 25 09:34:53 2015.

 ------------------------------------------------------------------
 #N Geom=AllCheck Guess=TCheck SCRF=Check GenChk RB3LYP/GenECP Freq
 ------------------------------------------------------------------

 Structure from the checkpoint file:  "/lustre/SCRATCH5/gau/mlawal/846861.sched01/Gau-23317.chk"
 --------------------------------------------------
 gen calculation BrAc-C H O=aug-cc-pvtz/Br=Def2tzvp
 --------------------------------------------------
 Charge =  0 Multiplicity = 1

                         Standard orientation:
 ---------------------------------------------------------------------
 Center     Atomic      Atomic             Coordinates (Angstroms)
 Number     Number       Type             X           Y           Z
 ---------------------------------------------------------------------
      1          6           0        1.017914    0.238665    0.000086
      2          6           0        1.761626   -1.060726   -0.000168
      3          1           0        1.478504   -1.638934    0.878035
      4          1           0        1.477489   -1.639312   -0.877785
      5          1           0        2.830809   -0.861266   -0.000800
      6          8           0        1.452933    1.332619   -0.000240
      7         35           0       -0.973929   -0.045402    0.000085
 ---------------------------------------------------------------------

 SCF Done:  E(RB3LYP) =  -2727.49667675     A.U. after    1 cycles

 The electronic state is 1-A.
 Alpha  occ. eigenvalues -- -482.85903 -62.50642 -56.32233 -56.31949 -56.31907
 Alpha  occ. eigenvalues --  -19.18042 -10.33622 -10.21821  -8.69672  -6.52511
 Alpha  occ. eigenvalues --   -6.51629  -6.51500  -2.63985  -2.63759  -2.63660
 Alpha  occ. eigenvalues --   -2.62953  -2.62949  -1.11537  -0.81219  -0.76269
 Alpha  occ. eigenvalues --   -0.56979  -0.50024  -0.48900  -0.48899  -0.42608
 Alpha  occ. eigenvalues --   -0.41576  -0.30804  -0.30428  -0.29428
 Alpha virt. eigenvalues --   -0.05616  -0.03064  -0.01427   0.01567   0.01650
 Alpha virt. eigenvalues --    0.02245   0.05593   0.06260   0.06665   0.07223
 Alpha virt. eigenvalues --    0.07584   0.08244   0.10032   0.10394   0.12855

 Mulliken charges:
               1
     1  C    0.235336
     2  C   -0.466688
     3  H    0.260088
     4  H    0.260125
     5  H    0.230347
     6  O   -0.430089
     7  Br  -0.089119
 Sum of Mulliken charges =   0.00000

 Dipole moment (field-independent basis, Debye):
    X=              1.5724    Y=             -2.4343    Z=              0.0001  Tot=              2.8980
 Quadrupole moment (field-independent basis, Debye-Ang):
   XX=            -34.4207   YY=            -37.9650   ZZ=            -35.6614
   XY=             -4.2615   XZ=              0.0008   YZ=              0.0008

  Exact polarizability:  68.669   1.597  49.684  -0.003  -0.001  38.496
 Approx polarizability: 109.402  12.981  77.413  -0.004  -0.005  58.228

                      1                      2                      3
                      A                      A                      A
 Frequencies --    128.4919               294.3767               333.2451
 Red. masses --      1.0433                 3.4373                14.1926
 Frc consts  --      0.0101                 0.1755                 0.9286
 IR Inten    --      0.0438                 8.3260                17.1149

                      4                      5                      6
                      A                      A                      A
 Frequencies --    496.1505               567.2612               943.7470
 Red. masses --      3.0522                 4.1243                 3.0814
 Frc consts  --      0.4427                 0.7819                 1.6170
 IR Inten    --      0.9777               116.7191                76.2204

                      7                      8                      9
                      A                      A                      A
 Frequencies --   1040.9849              1101.5289              1386.7657
 Red. masses --      1.5835                 1.8517                 1.2357
 Frc consts  --      1.0110                 1.3238                 1.4002
 IR Inten    --      1.7271               140.1912                21.3698

                     10                     11                     12
                      A                      A                      A
 Frequencies --   1462.6143              1463.2546              1892.0414
 Red. masses --      1.0446                 1.0481                12.0873
 Frc consts  --      1.3167                 1.3222                25.4941
 IR Inten    --     14.2870                10.7419               391.6489

                     13                     14                     15
                      A                      A                      A
 Frequencies --   3052.4653              3123.5555              3143.6624
 Red. masses --      1.0322                 1.1001                 1.1063
 Frc consts  --      5.6666                 6.3238                 6.4415
 IR Inten    --      1.0562                 0.0075                 6.6265

 - Thermochemistry -
 -------------------
 Temperature   298.150 Kelvin.  Pressure   1.00000 Atm.
 Atom     1 has atomic number  6 and mass  12.00000

 Molecular mass:   121.93673 amu.
 Principal axes and moments of inertia in atomic units:
                           1         2         3
     Eigenvalues --   177.91473 611.21072 778.03005
           X            0.99779  -0.06648   0.00009
           Y            0.06648   0.99779   0.00004
           Z           -0.00009  -0.00003   1.00000
 This molecule is an asymmetric top.
 Rotational symmetry number  1.
 Rotational temperatures (Kelvin)      0.48683     0.14171     0.11132
 Rotational constants (GHZ):          10.14385     2.95273     2.31963
 Zero-point vibrational energy     122199.4 (Joules/Mol)
                                   29.20636 (Kcal/Mol)
 Warning -- explicit consideration of   5 degrees of freedom as
           vibrations may cause significant error
 Vibrational temperatures:    184.87   423.54   479.46   713.85   816.16
          (Kelvin)           1357.84  1497.74  1584.85  1995.24  2104.37
                             2105.29  2722.22  4391.81  4494.09  4523.02

 Zero-point correction=                           0.046543 (Hartree/Particle)
 Thermal correction to Energy=                    0.051393
 Thermal correction to Enthalpy=                  0.052337
 Thermal correction to Gibbs Free Energy=         0.017465
 Sum of electronic and zero-point Energies=          -2727.450133
 Sum of electronic and thermal Energies=             -2727.445284
 Sum of electronic and thermal Enthalpies=           -2727.444340
 Sum of electronic and thermal Free Energies=        -2727.479212

                     E (Thermal)             CV                S
                      KCal/Mol        Cal/Mol-Kelvin    Cal/Mol-Kelvin
 Total                   32.250             14.896             73.395
 Electronic               0.000              0.000              0.000
 Translational            0.889              2.981             40.309
 Rotational               0.889              2.981             25.940
 Vibrational             30.472              8.934              7.146
 Vibration     1          0.611              1.925              2.969
 Vibration     2          0.689              1.684              1.449
 Vibration     3          0.715              1.609              1.244
 Vibration     4          0.852              1.259              0.668
 Vibration     5          0.923              1.102              0.510

 Normal termination of Gaussian 09 at Wed Mar 25 09:41:48 2015.
