 Gaussian 09, Revision D.01,
 Gaussian 09:  EM64L-G09RevD.01 24-Apr-2013

 ----------------------------------------------------------
 # opt freq b3lyp/gen geom=connectivity pseudo=read gfinput
 ----------------------------------------------------------

 -----------------------
 gen calculation ClAc-C H O=6-31+g(d)/Cl=Def2TZVP
 -----------------------
 Symbolic Z-matrix:
 Charge =  0 Multiplicity = 1

 SCF Done:  E(RB3LYP) =  -613.482092800     A.U. after   12 cycles
 SCF Done:  E(RB3LYP) =  -613.483452859     A.U. after   10 cycles
 SCF Done:  E(RB3LYP) =  -613.483545025     A.U. after    9 cycles
 SCF Done:  E(RB3LYP) =  -613.483545321     A.U. after    9 cycles
 SCF Done:  E(RB3LYP) =  -613.483545057     A.U. after    9 cycles
 SCF Done:  E(RB3LYP) =  -613.483547061     A.U. after    8 cycles
 Optimization completed.
    -- Stationary point found.
 Normal termination of Gaussian 09 at Wed Feb 25 14:55:13 2015.

 ------------------------------------------------------------------
 #N Geom=AllCheck Guess=TCheck SCRF=Check GenChk RB3LYP/ChkBas Freq
 ------------------------------------------------------------------

 Structure from the checkpoint file:  "/lustre/SCRATCH5/gau/Gau-9876.chk"
 -----------------------
 gen calculation ClAc-C H O=6-31+g(d)/Cl=Def2TZVP
 -----------------------
 Charge =  0 Multiplicity = 1

                         Standard orientation:
 ---------------------------------------------------------------------
 Center     Atomic      Atomic             Coordinates (Angstroms)
 Number     Number       Type             X           Y           Z
 ---------------------------------------------------------------------
      1          6           0        1.328211   -0.998070   -0.000056
      2          1           0        1.100942   -1.604142    0.883080
      3          1           0        2.381765   -0.708829   -0.000593
      4          1           0        1.100163   -1.604768   -0.882551
      5          6           0        0.473049    0.239880   -0.000051
      6          8           0        0.836904    1.374767   -0.000225
      7         17           0       -1.299156   -0.148897    0.000147
 ---------------------------------------------------------------------

 SCF Done:  E(RB3LYP) =  -613.483547061     A.U. after    1 cycles

 The electronic state is 1-A.
 Alpha  occ. eigenvalues -- -101.53272 -19.19645 -10.35302 -10.22340  -9.46539
 Alpha  occ. eigenvalues --   -7.22609  -7.21918  -7.21796  -1.10686  -0.85849
 Alpha  occ. eigenvalues --   -0.77438  -0.57360  -0.50279  -0.48621  -0.48427
 Alpha  occ. eigenvalues --   -0.43055  -0.41145  -0.33398  -0.33066  -0.30798
 Alpha virt. eigenvalues --   -0.05292  -0.00484   0.00925   0.03817   0.04622
 Alpha virt. eigenvalues --    0.05127   0.08060   0.08591   0.08865   0.12171
 Alpha virt. eigenvalues --    0.15570   0.16467   0.22453   0.23940   0.23973

 Mulliken charges:
               1
     1  C   -0.756323
     2  H    0.246476
     3  H    0.240756
     4  H    0.246471
     5  C    0.518077
     6  O   -0.320470
     7  Cl  -0.174987
 Sum of Mulliken charges =   0.00000

 Dipole moment (field-independent basis, Debye):
    X=              1.3675    Y=             -2.5933    Z=              0.0002  Tot=              2.9318
 Quadrupole moment (field-independent basis, Debye-Ang):
   XX=            -29.8895   YY=            -32.7938   ZZ=            -29.6980
   XY=             -2.8998   XZ=              0.0005   YZ=              0.0006

  Exact polarizability:  50.269   3.012  40.980  -0.002  -0.002  28.918
 Approx polarizability:  74.848  12.935  63.807  -0.004  -0.005  42.169

                      1                      2                      3
                      A                      A                      A
 Frequencies --    131.2785               343.2949               434.6793
 Red. masses --      1.0546                 3.4375                16.7524
 Frc consts  --      0.0107                 0.2387                 1.8649
 IR Inten    --      0.0592                 2.0177                19.1948

                      4                      5                      6
                      A                      A                      A
 Frequencies --    519.4410               604.2796               965.4708
 Red. masses --      3.0274                 4.4893                 2.7847
 Frc consts  --      0.4813                 0.9658                 1.5294
 IR Inten    --      1.9214               128.7495                70.6568

                      7                      8                      9
                      A                      A                      A
 Frequencies --   1056.4831              1126.5580              1414.5913
 Red. masses --      1.5962                 1.9825                 1.2448
 Frc consts  --      1.0497                 1.4824                 1.4676
 IR Inten    --      2.8209               145.1038                24.0425

                     10                     11                     12
                      A                      A                      A
 Frequencies --   1487.5401              1489.7311              1879.6722
 Red. masses --      1.0480                 1.0448                12.0118
 Frc consts  --      1.3664                 1.3661                25.0048
 IR Inten    --     14.5000                14.6606               333.8378

                     13                     14                     15
                      A                      A                      A
 Frequencies --   3069.5759              3139.0719              3168.2376
 Red. masses --      1.0339                 1.1008                 1.1058
 Frc consts  --      5.7399                 6.3907                 6.5398
 IR Inten    --      0.5254                 0.4748                 5.4512

 - Thermochemistry -
 -------------------
 Temperature   298.150 Kelvin.  Pressure   1.00000 Atm.
 Atom     1 has atomic number  6 and mass  12.00000

 Molecular mass:    77.98724 amu.
 Principal axes and moments of inertia in atomic units:
                           1         2         3
     Eigenvalues --   179.05154 371.29299 539.12479
           X            0.99444  -0.10533   0.00010
           Y            0.10533   0.99444   0.00009
           Z           -0.00011  -0.00008   1.00000
 This molecule is an asymmetric top.
 Rotational symmetry number  1.
 Rotational temperatures (Kelvin)      0.48374     0.23328     0.16066
 Rotational constants (GHZ):          10.07945     4.86069     3.34754
 Zero-point vibrational energy     124590.5 (Joules/Mol)
                                   29.77784 (Kcal/Mol)
 Warning -- explicit consideration of   5 degrees of freedom as
           vibrations may cause significant error
 Vibrational temperatures:    188.88   493.92   625.41   747.36   869.42
          (Kelvin)           1389.10  1520.04  1620.86  2035.28  2140.24
                             2143.39  2704.43  4416.43  4516.42  4558.38

 Zero-point correction=                           0.047454 (Hartree/Particle)
 Thermal correction to Energy=                    0.052089
 Thermal correction to Enthalpy=                  0.053033
 Thermal correction to Gibbs Free Energy=         0.019600
 Sum of electronic and zero-point Energies=           -613.436093
 Sum of electronic and thermal Energies=              -613.431458
 Sum of electronic and thermal Enthalpies=            -613.430514
 Sum of electronic and thermal Free Energies=         -613.463947

                     E (Thermal)             CV                S
                      KCal/Mol        Cal/Mol-Kelvin    Cal/Mol-Kelvin
 Total                   32.686             14.367             70.366
 Electronic               0.000              0.000              0.000
 Translational            0.889              2.981             38.977
 Rotational               0.889              2.981             25.086
 Vibrational             30.909              8.405              6.303
 Vibration     1          0.612              1.922              2.927
 Vibration     2          0.722              1.589              1.197
 Vibration     3          0.795              1.395              0.844
 Vibration     4          0.874              1.207              0.611
 Vibration     5          0.963              1.023              0.442

 Optimization completed.
    -- Stationary point found.
 Normal termination of Gaussian 09 at Wed Feb 25 14:55:31 2015.
