 Gaussian 09, Revision D.01,
 Gaussian 09:  EM64L-G09RevD.01 24-Apr-2013

 -------------------------------------------------------------
 # opt freq b3lyp/genecp geom=connectivity gfinput pseudo=read
 -------------------------------------------------------------

 -------------------------------------------------
 gen calculation-ClAc C H O=aug-ccpvtz/Cl=def2tzvp
 -------------------------------------------------
 Symbolic Z-matrix:
 Charge =  0 Multiplicity = 1

 SCF Done:  E(RB3LYP) =  -613.540545274     A.U. after   12 cycles
 SCF Done:  E(RB3LYP) =  -613.542065079     A.U. after   10 cycles
 SCF Done:  E(RB3LYP) =  -613.542186267     A.U. after    9 cycles
 SCF Done:  E(RB3LYP) =  -613.542190781     A.U. after    8 cycles
 SCF Done:  E(RB3LYP) =  -613.542180263     A.U. after    9 cycles
 SCF Done:  E(RB3LYP) =  -613.542193586     A.U. after    8 cycles
 Optimization completed.
    -- Stationary point found.
 Normal termination of Gaussian 09 at Wed Mar 25 16:39:36 2015.

 ------------------------------------------------------------------
 #N Geom=AllCheck Guess=TCheck SCRF=Check GenChk RB3LYP/GenECP Freq
 ------------------------------------------------------------------

 Structure from the checkpoint file:  "/lustre/SCRATCH5/gau/mlawal/847769.sched01/Gau-1981.chk"
 -------------------------------------------------
 gen calculation-ClAc C H O=aug-ccpvtz/Cl=def2tzvp
 -------------------------------------------------
 Charge =  0 Multiplicity = 1

                         Standard orientation:
 ---------------------------------------------------------------------
 Center     Atomic      Atomic             Coordinates (Angstroms)
 Number     Number       Type             X           Y           Z
 ---------------------------------------------------------------------
      1          6           0        1.318585   -1.000466   -0.000010
      2          1           0        1.081109   -1.599729    0.878298
      3          1           0        2.370436   -0.725625   -0.000611
      4          1           0        1.080199   -1.600287   -0.877682
      5          6           0        0.481745    0.241228    0.000109
      6          8           0        0.845484    1.364600   -0.000236
      7         17           0       -1.299858   -0.143278    0.000076
 ---------------------------------------------------------------------

 SCF Done:  E(RB3LYP) =  -613.542193586     A.U. after    1 cycles

 The electronic state is 1-A.
 Alpha  occ. eigenvalues -- -101.53091 -19.17205 -10.33762 -10.21470  -9.46334
 Alpha  occ. eigenvalues --   -7.22403  -7.21720  -7.21599  -1.10956  -0.85556
 Alpha  occ. eigenvalues --   -0.77492  -0.57247  -0.50444  -0.48820  -0.48697
 Alpha  occ. eigenvalues --   -0.43095  -0.41291  -0.33300  -0.32919  -0.30882
 Alpha virt. eigenvalues --   -0.05255  -0.01942   0.00381   0.01692   0.01810
 Alpha virt. eigenvalues --    0.02344   0.05765   0.06395   0.06728   0.07298
 Alpha virt. eigenvalues --    0.07738   0.08293   0.10260   0.10726   0.12923

 Mulliken charges:
               1
     1  C   -0.508277
     2  H    0.248118
     3  H    0.249916
     4  H    0.248141
     5  C    0.304090
     6  O   -0.439667
     7  Cl  -0.102322
 Sum of Mulliken charges =   0.00000

 Dipole moment (field-independent basis, Debye):
    X=              1.4536    Y=             -2.4543    Z=              0.0004  Tot=              2.8525
 Quadrupole moment (field-independent basis, Debye-Ang):
   XX=            -29.9436   YY=            -32.5092   ZZ=            -29.6496
   XY=             -2.8930   XZ=              0.0007   YZ=              0.0008

  Exact polarizability:  54.546   1.976  44.165  -0.001  -0.002  32.293
 Approx polarizability:  81.653  11.163  68.395  -0.002  -0.005  48.338

                      1                      2                      3
                      A                      A                      A
 Frequencies --    134.7274               342.7636               429.8986
 Red. masses --      1.0535                 3.4124                17.2532
 Frc consts  --      0.0113                 0.2362                 1.8787
 IR Inten    --      0.0314                 2.1417                24.7819

                      4                      5                      6
                      A                      A                      A
 Frequencies --    522.5618               598.3388               955.6323
 Red. masses --      2.9415                 4.4450                 2.8698
 Frc consts  --      0.4733                 0.9376                 1.5441
 IR Inten    --      1.7664               125.7196                71.1258

                      7                      8                      9
                      A                      A                      A
 Frequencies --   1049.2407              1114.2028              1393.8917
 Red. masses --      1.6252                 1.9496                 1.2435
 Frc consts  --      1.0541                 1.4260                 1.4235
 IR Inten    --      2.7684               133.9221                22.4770

                     10                     11                     12
                      A                      A                      A
 Frequencies --   1465.3669              1467.9576              1876.4454
 Red. masses --      1.0491                 1.0444                12.0658
 Frc consts  --      1.3273                 1.3260                25.0309
 IR Inten    --     12.3792                12.2534               332.4135

                     13                     14                     15
                      A                      A                      A
 Frequencies --   3051.4842              3117.4647              3144.9923
 Red. masses --      1.0332                 1.0998                 1.1057
 Frc consts  --      5.6682                 6.2978                 6.4438
 IR Inten    --      0.3982                 0.2420                 5.4508

 - Thermochemistry -
 -------------------
 Temperature   298.150 Kelvin.  Pressure   1.00000 Atm.
 Atom     1 has atomic number  6 and mass  12.00000

 Molecular mass:    77.98724 amu.
 Principal axes and moments of inertia in atomic units:
                           1         2         3
     Eigenvalues --   177.45956 371.01607 537.37820
           X            0.99461  -0.10368   0.00006
           Y            0.10368   0.99461   0.00010
           Z           -0.00007  -0.00010   1.00000
 This molecule is an asymmetric top.
 Rotational symmetry number  1.
 Rotational temperatures (Kelvin)      0.48808     0.23345     0.16118
 Rotational constants (GHZ):          10.16987     4.86432     3.35842
 Zero-point vibrational energy     123604.0 (Joules/Mol)
                                   29.54206 (Kcal/Mol)
 Warning -- explicit consideration of   5 degrees of freedom as
           vibrations may cause significant error
 Vibrational temperatures:    193.84   493.16   618.53   751.85   860.87
          (Kelvin)           1374.94  1509.62  1603.09  2005.50  2108.33
                             2112.06  2699.78  4390.40  4485.33  4524.94

 Zero-point correction=                           0.047078 (Hartree/Particle)
 Thermal correction to Energy=                    0.051718
 Thermal correction to Enthalpy=                  0.052662
 Thermal correction to Gibbs Free Energy=         0.019243
 Sum of electronic and zero-point Energies=           -613.495115
 Sum of electronic and thermal Energies=              -613.490475
 Sum of electronic and thermal Enthalpies=            -613.489531
 Sum of electronic and thermal Free Energies=         -613.522951

                     E (Thermal)             CV                S
                      KCal/Mol        Cal/Mol-Kelvin    Cal/Mol-Kelvin
 Total                   32.454             14.429             70.338
 Electronic               0.000              0.000              0.000
 Translational            0.889              2.981             38.977
 Rotational               0.889              2.981             25.073
 Vibrational             30.676              8.468              6.287
 Vibration     1          0.613              1.919              2.877
 Vibration     2          0.722              1.590              1.199
 Vibration     3          0.791              1.405              0.859
 Vibration     4          0.878              1.200              0.604
 Vibration     5          0.956              1.035              0.453

 Optimization completed.
    -- Stationary point found.
 Normal termination of Gaussian 09 at Wed Mar 25 16:45:41 2015.
