 Gaussian 09, Revision D.01,
 Gaussian 09:  EM64L-G09RevD.01 24-Apr-2013

 -------------------------------------------------------------
 # opt freq b3lyp/genecp geom=connectivity gfinput pseudo=read
 -------------------------------------------------------------

 ------------------------------------------------
 gen calculation FAc-C H O=aug-cc-pvtz/F=def2tzvp
 ------------------------------------------------
 Symbolic Z-matrix:
 Charge =  0 Multiplicity = 1

 SCF Done:  E(RB3LYP) =  -253.204593046     A.U. after   11 cycles
 SCF Done:  E(RB3LYP) =  -253.207345400     A.U. after   10 cycles
 SCF Done:  E(RB3LYP) =  -253.207573033     A.U. after    8 cycles
 SCF Done:  E(RB3LYP) =  -253.207591829     A.U. after    8 cycles
 SCF Done:  E(RB3LYP) =  -253.207593182     A.U. after    7 cycles
 SCF Done:  E(RB3LYP) =  -253.207592612     A.U. after    7 cycles
 SCF Done:  E(RB3LYP) =  -253.207593833     A.U. after    7 cycles
 Optimization completed.
    -- Stationary point found.

 1\1\GINC-CNODE-5-79\FOpt\RB3LYP\GenECP\C2H3F1O1\MLAWAL\27-Mar-2015\0\\
 # opt freq b3lyp/genecp geom=connectivity gfinput pseudo=read\\gen cal
 culation FAc-C H O=aug-cc-pvtz/F=def2tzvp\\0,1\C,1.3909145537,-0.04205
 81139,0.0000002851\H,1.7183630817,0.514396934,-0.8781459369\H,1.827257
 4695,-1.0355749808,-0.0000568475\H,1.7183699308,0.5142935857,0.8782101
 855\C,-0.0988550721,-0.141425044,0.0000059535\O,-0.789457282,-1.100319
 9911,-0.0000208156\F,-0.6599646816,1.1048346101,0.0000151758\\Version=
 EM64L-G09RevD.01\State=1-A\HF=-253.2075938\RMSD=6.225e-09\RMSF=1.142e-

 Normal termination of Gaussian 09 at Fri Mar 27 11:44:32 2015.

 ------------------------------------------------------------------
 #N Geom=AllCheck Guess=TCheck SCRF=Check GenChk RB3LYP/GenECP Freq
 ------------------------------------------------------------------

 Structure from the checkpoint file:  "/lustre/SCRATCH5/gau/mlawal/854152.sched01/Gau-32066.chk"
 ------------------------------------------------
 gen calculation FAc-C H O=aug-cc-pvtz/F=def2tzvp
 ------------------------------------------------
 Charge =  0 Multiplicity = 1

                         Standard orientation:
 ---------------------------------------------------------------------
 Center     Atomic      Atomic             Coordinates (Angstroms)
 Number     Number       Type             X           Y           Z
 ---------------------------------------------------------------------
      1          6           0        1.367165   -0.042056    0.000000
      2          1           0        1.694191    0.514647   -0.878146
      3          1           0        1.804263   -1.035241   -0.000057
      4          1           0        1.694198    0.514544    0.878210
      5          6           0       -0.122528   -0.142555    0.000005
      6          8           0       -0.812402   -1.101974   -0.000021
      7          9           0       -0.684584    1.103278    0.000015
 ---------------------------------------------------------------------

 SCF Done:  E(RB3LYP) =  -253.207593833     A.U. after    1 cycles

 The electronic state is 1-A.
 Alpha  occ. eigenvalues --  -24.70951 -19.15785 -10.35160 -10.21225  -1.24803
 Alpha  occ. eigenvalues --   -1.08865  -0.78730  -0.62020  -0.52902  -0.51757
 Alpha  occ. eigenvalues --   -0.50663  -0.44623  -0.43906  -0.40888  -0.38718
 Alpha  occ. eigenvalues --   -0.32462
 Alpha virt. eigenvalues --   -0.03163  -0.01842   0.01679   0.01776   0.02382
 Alpha virt. eigenvalues --    0.05845   0.06212   0.06828   0.07174   0.07858
 Alpha virt. eigenvalues --    0.08092   0.10673   0.11078   0.11714   0.15130

 Mulliken charges:
               1
     1  C   -0.500132
     2  H    0.233014
     3  H    0.271016
     4  H    0.233013
     5  C    0.382797
     6  O   -0.453059
     7  F   -0.166649
 Sum of Mulliken charges =   0.00000

 Dipole moment (field-independent basis, Debye):
    X=              2.9490    Y=              0.6662    Z=              0.0000  Tot=              3.0234
 Quadrupole moment (field-independent basis, Debye-Ang):
   XX=            -22.4814   YY=            -25.8452   ZZ=            -21.5108
   XY=             -0.8642   XZ=              0.0000   YZ=             -0.0001

  Exact polarizability:  33.339   2.182  32.416   0.000   0.000  23.770
 Approx polarizability:  41.922   5.097  48.446   0.000   0.000  32.983

                      1                      2                      3
                      A                      A                      A
 Frequencies --    119.3585               414.2843               572.5102
 Red. masses --      1.0807                 3.1353                 2.5942
 Frc consts  --      0.0091                 0.3170                 0.5010
 IR Inten    --      0.0332                 0.1495                 5.5739

                      4                      5                      6
                      A                      A                      A
 Frequencies --    597.5796               826.1493              1003.7157
 Red. masses --      8.0246                 6.4378                 1.9406
 Frc consts  --      1.6884                 2.5889                 1.1519
 IR Inten    --     17.2037                68.9846                48.8122

                      7                      8                      9
                      A                      A                      A
 Frequencies --   1072.0668              1187.9938              1403.4765
 Red. masses --      1.7874                 3.1029                 1.2908
 Frc consts  --      1.2104                 2.5801                 1.4980
 IR Inten    --      8.7725               194.2829                31.8925

                     10                     11                     12
                      A                      A                      A
 Frequencies --   1468.8110              1475.5616              1901.4944
 Red. masses --      1.0474                 1.0447                12.1704
 Frc consts  --      1.3313                 1.3402                25.9265
 IR Inten    --     14.8943                 7.8733               309.7330

                     13                     14                     15
                      A                      A                      A
 Frequencies --   3054.0915              3111.8270              3160.7014
 Red. masses --      1.0362                 1.0994                 1.1034
 Frc consts  --      5.6948                 6.2726                 6.4945
 IR Inten    --      0.1691                 1.2070                 2.9523

 - Thermochemistry -
 -------------------
 Temperature   298.150 Kelvin.  Pressure   1.00000 Atm.
 Atom     1 has atomic number  6 and mass  12.00000

 Molecular mass:    62.01679 amu.
 Principal axes and moments of inertia in atomic units:
                           1         2         3
     Eigenvalues --   163.97210 186.36637 339.23629
           X            0.99639   0.08494   0.00000
           Y           -0.08494   0.99639  -0.00002
           Z            0.00000   0.00002   1.00000
 This molecule is an asymmetric top.
 Rotational symmetry number  1.
 Rotational temperatures (Kelvin)      0.52822     0.46475     0.25532
 Rotational constants (GHZ):          11.00639     9.68384     5.32001
 Zero-point vibrational energy     127818.7 (Joules/Mol)
                                   30.54941 (Kcal/Mol)
 Warning -- explicit consideration of   4 degrees of freedom as
           vibrations may cause significant error
 Vibrational temperatures:    171.73   596.06   823.71   859.78  1188.64
          (Kelvin)           1444.12  1542.46  1709.26  2019.29  2113.29
                             2123.00  2735.82  4394.15  4477.22  4547.54

 Zero-point correction=                           0.048684 (Hartree/Particle)
 Thermal correction to Energy=                    0.053019
 Thermal correction to Enthalpy=                  0.053963
 Thermal correction to Gibbs Free Energy=         0.021863
 Sum of electronic and zero-point Energies=           -253.158910
 Sum of electronic and thermal Energies=              -253.154575
 Sum of electronic and thermal Enthalpies=            -253.153630
 Sum of electronic and thermal Free Energies=         -253.185731

                     E (Thermal)             CV                S
                      KCal/Mol        Cal/Mol-Kelvin    Cal/Mol-Kelvin
 Total                   33.270             13.248             67.562
 Electronic               0.000              0.000              0.000
 Translational            0.889              2.981             38.294
 Rotational               0.889              2.981             23.854
 Vibrational             31.493              7.287              5.414
 Vibration     1          0.609              1.933              3.111
 Vibration     2          0.778              1.439              0.912
 Vibration     3          0.929              1.091              0.499
 Vibration     4          0.955              1.037              0.454

 Optimization completed.
    -- Stationary point found.

 1\1\GINC-CNODE-5-79\Freq\RB3LYP\GenECP\C2H3F1O1\MLAWAL\27-Mar-2015\0\\
 #N Geom=AllCheck Guess=TCheck SCRF=Check GenChk RB3LYP/GenECP Freq\\ge
 n calculation FAc-C H O=aug-cc-pvtz/F=def2tzvp\\0,1\C,1.3909145537,-0.
 0420581139,0.0000002851\H,1.7183630817,0.514396934,-0.8781459369\H,1.8
 272574695,-1.0355749808,-0.0000568475\H,1.7183699308,0.5142935857,0.87
 82101855\C,-0.0988550721,-0.141425044,0.0000059535\O,-0.789457282,-1.1
 003199911,-0.0000208156\F,-0.6599646816,1.1048346101,0.0000151758\\Ver
 sion=EM64L-G09RevD.01\State=1-A\HF=-253.2075938\RMSD=1.884e-09\RMSF=1.

 Normal termination of Gaussian 09 at Fri Mar 27 11:50:50 2015.
