 Gaussian 09, Revision D.01,
 Gaussian 09:  EM64L-G09RevD.01 24-Apr-2013

 ----------------------------------------------------------
 # opt freq b3lyp/gen geom=connectivity gfinput pseudo=read
 ----------------------------------------------------------

 ----------------------
 gen calculation FAc-C H O=6-31+g(d)/F=Def2TZVP
 ----------------------
 Symbolic Z-matrix:
 Charge =  0 Multiplicity = 1

 SCF Done:  E(RB3LYP) =  -253.145019168     A.U. after   11 cycles
 SCF Done:  E(RB3LYP) =  -253.147519198     A.U. after   10 cycles
 SCF Done:  E(RB3LYP) =  -253.147717017     A.U. after    9 cycles
 SCF Done:  E(RB3LYP) =  -253.147730114     A.U. after    9 cycles
 SCF Done:  E(RB3LYP) =  -253.147730700     A.U. after    7 cycles
 SCF Done:  E(RB3LYP) =  -253.147730106     A.U. after    8 cycles
 SCF Done:  E(RB3LYP) =  -253.147731080     A.U. after    8 cycles
 Optimization completed.
    -- Stationary point found.
 Normal termination of Gaussian 09 at Wed Feb 25 15:02:03 2015.

 ------------------------------------------------------------------
 #N Geom=AllCheck Guess=TCheck SCRF=Check GenChk RB3LYP/ChkBas Freq
 ------------------------------------------------------------------

 Structure from the checkpoint file:  "/lustre/SCRATCH5/gau/Gau-10611.chk"
 ----------------------
 gen calculation FAc-C H O=6-31+g(d)/F=Def2TZVP
 ----------------------
 Charge =  0 Multiplicity = 1

                         Standard orientation:
 ---------------------------------------------------------------------
 Center     Atomic      Atomic             Coordinates (Angstroms)
 Number     Number       Type             X           Y           Z
 ---------------------------------------------------------------------
      1          6           0        1.373639   -0.046641   -0.000001
      2          1           0        1.708365    0.508847   -0.882839
      3          1           0        1.806107   -1.047897   -0.000057
      4          1           0        1.708367    0.508745    0.882900
      5          6           0       -0.123643   -0.138643    0.000001
      6          8           0       -0.821262   -1.104859   -0.000021
      7          9           0       -0.683636    1.108987    0.000018
 ---------------------------------------------------------------------

 SCF Done:  E(RB3LYP) =  -253.147731080     A.U. after    1 cycles

 The electronic state is 1-A.
 Alpha  occ. eigenvalues --  -24.71115 -19.18454 -10.37073 -10.22235  -1.24937
 Alpha  occ. eigenvalues --   -1.08814  -0.78753  -0.62181  -0.52878  -0.51703
 Alpha  occ. eigenvalues --   -0.50605  -0.44602  -0.44021  -0.40922  -0.38569
 Alpha  occ. eigenvalues --   -0.32389
 Alpha virt. eigenvalues --   -0.03331  -0.00247   0.03764   0.04524   0.04803
 Alpha virt. eigenvalues --    0.07747   0.08067   0.08926   0.12757   0.15061
 Alpha virt. eigenvalues --    0.15956   0.18698   0.22217   0.25077   0.25215

 Mulliken charges:
               1
     1  C   -0.785786
     2  H    0.243242
     3  H    0.242561
     4  H    0.243242
     5  C    0.658338
     6  O   -0.372427
     7  F   -0.229170
 Sum of Mulliken charges =   0.00000

 Dipole moment (field-independent basis, Debye):
    X=              3.0595    Y=              0.6874    Z=              0.0000  Tot=              3.1358
 Quadrupole moment (field-independent basis, Debye-Ang):
   XX=            -22.6632   YY=            -26.0372   ZZ=            -21.5392
   XY=             -0.8807   XZ=              0.0000   YZ=             -0.0001

  Exact polarizability:  29.947   2.859  30.726   0.000   0.000  20.664
 Approx polarizability:  36.833   6.347  46.012   0.000   0.000  27.549

                      1                      2                      3
                      A                      A                      A
 Frequencies --    119.9689               412.7720               568.6733
 Red. masses --      1.0813                 3.1699                 2.6890
 Frc consts  --      0.0092                 0.3182                 0.5123
 IR Inten    --      0.0935                 0.1258                 6.4173

                      4                      5                      6
                      A                      A                      A
 Frequencies --    593.4373               833.2848              1012.6892
 Red. masses --      8.0933                 6.4065                 1.8922
 Frc consts  --      1.6793                 2.6209                 1.1433
 IR Inten    --     18.5097                65.8320                47.4527

                      7                      8                      9
                      A                      A                      A
 Frequencies --   1078.9306              1204.3832              1424.5236
 Red. masses --      1.7419                 3.2069                 1.2901
 Frc consts  --      1.1947                 2.7407                 1.5425
 IR Inten    --      9.0116               215.0897                34.4945

                     10                     11                     12
                      A                      A                      A
 Frequencies --   1490.8606              1496.2108              1910.3594
 Red. masses --      1.0464                 1.0448                12.1306
 Frc consts  --      1.3703                 1.3780                26.0832
 IR Inten    --     16.1937                10.2977               313.5532

                     13                     14                     15
                      A                      A                      A
 Frequencies --   3071.0684              3132.9237              3183.5381
 Red. masses --      1.0369                 1.1003                 1.1035
 Frc consts  --      5.7620                 6.3631                 6.5896
 IR Inten    --      0.4572                 1.4470                 3.0336

 - Thermochemistry -
 -------------------
 Temperature   298.150 Kelvin.  Pressure   1.00000 Atm.
 Atom     1 has atomic number  6 and mass  12.00000

 Molecular mass:    62.01679 amu.
 Principal axes and moments of inertia in atomic units:
                           1         2         3
     Eigenvalues --   165.29230 188.26657 342.33776
           X            0.99695   0.07804   0.00000
           Y           -0.07804   0.99695  -0.00002
           Z            0.00000   0.00002   1.00000
 This molecule is an asymmetric top.
 Rotational symmetry number  1.
 Rotational temperatures (Kelvin)      0.52400     0.46006     0.25301
 Rotational constants (GHZ):          10.91848     9.58609     5.27181
 Zero-point vibrational energy     128799.7 (Joules/Mol)
                                   30.78386 (Kcal/Mol)
 Warning -- explicit consideration of   4 degrees of freedom as
           vibrations may cause significant error
 Vibrational temperatures:    172.61   593.89   818.19   853.82  1198.91
          (Kelvin)           1457.03  1552.34  1732.84  2049.57  2145.01
                             2152.71  2748.58  4418.58  4507.57  4580.40

 Zero-point correction=                           0.049057 (Hartree/Particle)
 Thermal correction to Energy=                    0.053391
 Thermal correction to Enthalpy=                  0.054335
 Thermal correction to Gibbs Free Energy=         0.022225
 Sum of electronic and zero-point Energies=           -253.098674
 Sum of electronic and thermal Energies=              -253.094340
 Sum of electronic and thermal Enthalpies=            -253.093396
 Sum of electronic and thermal Free Energies=         -253.125506

                     E (Thermal)             CV                S
                      KCal/Mol        Cal/Mol-Kelvin    Cal/Mol-Kelvin
 Total                   33.504             13.211             67.582
 Electronic               0.000              0.000              0.000
 Translational            0.889              2.981             38.294
 Rotational               0.889              2.981             23.881
 Vibrational             31.726              7.249              5.407
 Vibration     1          0.609              1.933              3.101
 Vibration     2          0.777              1.443              0.917
 Vibration     3          0.925              1.099              0.507
 Vibration     4          0.951              1.046              0.461

 Optimization completed.
    -- Stationary point found.
 Normal termination of Gaussian 09 at Wed Feb 25 15:02:18 2015.
