 Gaussian 09, Revision D.01,
 Gaussian 09:  EM64L-G09RevD.01 24-Apr-2013

 ----------------------------------------------------------
 # opt freq b3lyp/gen geom=connectivity gfinput pseudo=read
 ----------------------------------------------------------

 --------------------------------------------
 gen calculation-iac C H O=aug-ccpvtz/I=midix
 --------------------------------------------
 Symbolic Z-matrix:
 Charge =  0 Multiplicity = 1

 SCF Done:  E(RB3LYP) =  -7043.46148130     A.U. after   14 cycles
 SCF Done:  E(RB3LYP) =  -7043.47005425     A.U. after   14 cycles
 SCF Done:  E(RB3LYP) =  -7043.46179833     A.U. after   14 cycles
 SCF Done:  E(RB3LYP) =  -7043.47041020     A.U. after   10 cycles
 SCF Done:  E(RB3LYP) =  -7043.47135348     A.U. after   14 cycles
 SCF Done:  E(RB3LYP) =  -7043.47166013     A.U. after   14 cycles
 SCF Done:  E(RB3LYP) =  -7043.47190666     A.U. after   15 cycles
 SCF Done:  E(RB3LYP) =  -7043.47197507     A.U. after   14 cycles
 SCF Done:  E(RB3LYP) =  -7043.47199469     A.U. after   14 cycles
 SCF Done:  E(RB3LYP) =  -7043.47199490     A.U. after    8 cycles
 Optimization completed.
    -- Stationary point found.
 Normal termination of Gaussian 09 at Tue Mar 24 12:53:44 2015.

 ------------------------------------------------------------------
 #N Geom=AllCheck Guess=TCheck SCRF=Check GenChk RB3LYP/ChkBas Freq
 ------------------------------------------------------------------

 Structure from the checkpoint file:  "/lustre/SCRATCH5/gau/mlawal/846018.sched01/Gau-19653.chk"
 --------------------------------------------
 gen calculation-iac C H O=aug-ccpvtz/I=midix
 --------------------------------------------
 Charge =  0 Multiplicity = 1

                         Standard orientation:
 ---------------------------------------------------------------------
 Center     Atomic      Atomic             Coordinates (Angstroms)
 Number     Number       Type             X           Y           Z
 ---------------------------------------------------------------------
      1          6           0       -2.111779   -1.065434   -0.000018
      2          1           0       -1.823308   -1.647725   -0.874290
      3          1           0       -3.182661   -0.874370   -0.001183
      4          1           0       -1.825195   -1.646413    0.875750
      5          6           0       -1.361437    0.231104   -0.000067
      6          8           0       -1.839650    1.313812    0.000019
      7         53           0        0.799767   -0.025208    0.000001
 ---------------------------------------------------------------------

 SCF Done:  E(RB3LYP) =  -7043.47199490     A.U. after    1 cycles

 The electronic state is 1-A.
 Alpha  occ. eigenvalues -- **********-175.68072-164.45993-164.45670-164.45661
 Alpha  occ. eigenvalues --  -35.78788 -30.95653 -30.95264 -30.95213 -22.90623
 Alpha  occ. eigenvalues --  -22.90442 -22.90424 -22.90009 -22.89998 -19.17248
 Alpha  occ. eigenvalues --  -10.32242 -10.21188  -6.38035  -4.68600  -4.67611
 Alpha  occ. eigenvalues --   -4.67473  -2.06282  -2.05970  -2.05872  -2.04978
 Alpha  occ. eigenvalues --   -2.04976  -1.10448  -0.78895  -0.67606  -0.55560
 Alpha  occ. eigenvalues --   -0.48607  -0.48184  -0.48080  -0.41457  -0.40803
 Alpha  occ. eigenvalues --   -0.28839  -0.27463  -0.26644
 Alpha virt. eigenvalues --   -0.05591  -0.04530  -0.01649   0.01654   0.01684
 Alpha virt. eigenvalues --    0.02366   0.05544   0.06364   0.06680   0.07277
 Alpha virt. eigenvalues --    0.07723   0.08327   0.10052   0.10167   0.12714

 Mulliken charges:
               1
     1  C   -0.465062
     2  H    0.258541
     3  H    0.194102
     4  H    0.258423
     5  C    0.162207
     6  O   -0.437359
     7  I    0.029148
 Sum of Mulliken charges =   0.00000

 Dipole moment (field-independent basis, Debye):
    X=             -0.8519    Y=             -2.4343    Z=              0.0002  Tot=              2.5791
 Quadrupole moment (field-independent basis, Debye-Ang):
   XX=            -43.5081   YY=            -48.7386   ZZ=            -46.2210
   XY=              5.0879   XZ=             -0.0003   YZ=             -0.0006

  Exact polarizability:  84.641  -1.226  57.076   0.000  -0.001  45.651
 Approx polarizability: 144.489 -15.539  88.817   0.000  -0.002  68.405

                      1                      2                      3
                      A                      A                      A
 Frequencies --    107.3354               269.4448               319.0944
 Red. masses --      1.0422                 3.2300                16.0219
 Frc consts  --      0.0071                 0.1382                 0.9612
 IR Inten    --      0.0449                 3.1600                 4.9460

                      4                      5                      6
                      A                      A                      A
 Frequencies --    489.0379               580.6567               944.8563
 Red. masses --      3.0758                 3.7890                 2.7376
 Frc consts  --      0.4334                 0.7527                 1.4399
 IR Inten    --      0.1906                91.1983                66.8805

                      7                      8                      9
                      A                      A                      A
 Frequencies --   1018.0934              1109.0236              1376.1681
 Red. masses --      1.5705                 2.0270                 1.2307
 Frc consts  --      0.9591                 1.4689                 1.3732
 IR Inten    --      0.4665               150.6277                26.4109

                     10                     11                     12
                      A                      A                      A
 Frequencies --   1452.8085              1462.0834              1850.1153
 Red. masses --      1.0590                 1.0452                11.8780
 Frc consts  --      1.3169                 1.3164                23.9548
 IR Inten    --      7.2932                16.0434               434.9173

                     13                     14                     15
                      A                      A                      A
 Frequencies --   3047.3865              3114.4654              3138.2854
 Red. masses --      1.0325                 1.0996                 1.1069
 Frc consts  --      5.6493                 6.2841                 6.4233
 IR Inten    --      1.1870                 0.1077                 9.3161

 - Thermochemistry -
 -------------------
 Temperature   298.150 Kelvin.  Pressure   1.00000 Atm.
 Atom     1 has atomic number  6 and mass  12.00000

 Molecular mass:   169.91879 amu.
 Principal axes and moments of inertia in atomic units:
                           1         2         3
     Eigenvalues --   175.46121 809.88482 974.32355
           X            0.99853   0.05429   0.00000
           Y           -0.05429   0.99853  -0.00001
           Z            0.00000   0.00001   1.00000
 This molecule is an asymmetric top.
 Rotational symmetry number  1.
 Rotational temperatures (Kelvin)      0.49364     0.10695     0.08890
 Rotational constants (GHZ):          10.28570     2.22839     1.85230
 Zero-point vibrational energy     121294.5 (Joules/Mol)
                                   28.99008 (Kcal/Mol)
 Warning -- explicit consideration of   5 degrees of freedom as
           vibrations may cause significant error
 Vibrational temperatures:    154.43   387.67   459.11   703.62   835.43
          (Kelvin)           1359.44  1464.81  1595.64  1980.00  2090.26
                             2103.61  2661.90  4384.50  4481.02  4515.29

 Zero-point correction=                           0.046199 (Hartree/Particle)
 Thermal correction to Energy=                    0.051137
 Thermal correction to Enthalpy=                  0.052081
 Thermal correction to Gibbs Free Energy=         0.016235
 Sum of electronic and zero-point Energies=          -7043.425796
 Sum of electronic and thermal Energies=             -7043.420858
 Sum of electronic and thermal Enthalpies=           -7043.419914
 Sum of electronic and thermal Free Energies=        -7043.455759

                     E (Thermal)             CV                S
                      KCal/Mol        Cal/Mol-Kelvin    Cal/Mol-Kelvin
 Total                   32.089             15.001             75.443
 Electronic               0.000              0.000              0.000
 Translational            0.889              2.981             41.298
 Rotational               0.889              2.981             26.429
 Vibrational             30.311              9.039              7.716
 Vibration     1          0.606              1.943              3.317
 Vibration     2          0.674              1.729              1.600
 Vibration     3          0.705              1.637              1.315
 Vibration     4          0.845              1.274              0.686
 Vibration     5          0.937              1.073              0.484

 Normal termination of Gaussian 09 at Tue Mar 24 12:59:43 2015.
