 Gaussian 09, Revision D.01,
 Gaussian 09:  EM64L-G09RevD.01 24-Apr-2013

 ----------------------------------------------------------
 # opt freq b3lyp/gen geom=connectivity gfinput pseudo=read
 ----------------------------------------------------------

 -----------------------------------------------
 gen calculation-iac C H O=aug-ccpvtz/I=def2tzvp
 -----------------------------------------------
 Symbolic Z-matrix:
 Charge =  0 Multiplicity = 1

 SCF Done:  E(RB3LYP) =  -451.099990228     A.U. after   13 cycles
 SCF Done:  E(RB3LYP) =  -451.109899178     A.U. after   11 cycles
 SCF Done:  E(RB3LYP) =  -451.104316806     A.U. after   11 cycles
 SCF Done:  E(RB3LYP) =  -451.110408824     A.U. after    9 cycles
 SCF Done:  E(RB3LYP) =  -451.111783552     A.U. after   11 cycles
 SCF Done:  E(RB3LYP) =  -451.112282610     A.U. after   10 cycles
 SCF Done:  E(RB3LYP) =  -451.112577363     A.U. after   10 cycles
 SCF Done:  E(RB3LYP) =  -451.112689438     A.U. after   10 cycles
 SCF Done:  E(RB3LYP) =  -451.112711082     A.U. after    8 cycles
 SCF Done:  E(RB3LYP) =  -451.112713217     A.U. after    8 cycles
 Optimization completed.
    -- Stationary point found.
 Normal termination of Gaussian 09 at Tue Mar 24 13:11:00 2015.

 ------------------------------------------------------------------
 #N Geom=AllCheck Guess=TCheck SCRF=Check GenChk RB3LYP/ChkBas Freq
 ------------------------------------------------------------------

 Structure from the checkpoint file:  "/lustre/SCRATCH5/gau/mlawal/846027.sched01/Gau-26927.chk"
 -----------------------------------------------
 gen calculation-iac C H O=aug-ccpvtz/I=def2tzvp
 -----------------------------------------------
 Charge =  0 Multiplicity = 1

                         Standard orientation:
 ---------------------------------------------------------------------
 Center     Atomic      Atomic             Coordinates (Angstroms)
 Number     Number       Type             X           Y           Z
 ---------------------------------------------------------------------
      1          6           0       -2.129948   -1.078989   -0.000014
      2          1           0       -1.834845   -1.652097   -0.877842
      3          1           0       -3.203612   -0.899042   -0.000412
      4          1           0       -1.835726   -1.651968    0.878188
      5          6           0       -1.407163    0.234893    0.000019
      6          8           0       -1.870651    1.317483   -0.000002
      7         53           0        0.812492   -0.024003    0.000001
 ---------------------------------------------------------------------

 SCF Done:  E(RB3LYP) =  -451.112713217     A.U. after    1 cycles

 The electronic state is 1-A.
 Alpha  occ. eigenvalues --  -19.18346 -10.32997 -10.21865  -6.84183  -4.86483
 Alpha  occ. eigenvalues --   -4.85569  -4.85462  -1.91292  -1.91020  -1.90938
 Alpha  occ. eigenvalues --   -1.90147  -1.90144  -1.11540  -0.79367  -0.70070
 Alpha  occ. eigenvalues --   -0.56551  -0.49394  -0.48767  -0.48740  -0.41914
 Alpha  occ. eigenvalues --   -0.41581  -0.29017  -0.27399  -0.26750
 Alpha virt. eigenvalues --   -0.05871  -0.05557  -0.01762   0.01453   0.01592
 Alpha virt. eigenvalues --    0.02222   0.05426   0.06176   0.06483   0.07222
 Alpha virt. eigenvalues --    0.07551   0.07895   0.09792   0.09838   0.12341

 Mulliken charges:
               1
     1  C   -0.444938
     2  H    0.269809
     3  H    0.225170
     4  H    0.269758
     5  C    0.133839
     6  O   -0.421916
     7  I   -0.031723
 Sum of Mulliken charges =   0.00000

 Dipole moment (field-independent basis, Debye):
    X=             -1.4962    Y=             -2.3652    Z=              0.0001  Tot=              2.7988
 Quadrupole moment (field-independent basis, Debye-Ang):
   XX=            -41.5910   YY=            -46.6814   ZZ=            -44.5831
   XY=              5.2068   XZ=             -0.0006   YZ=             -0.0003

  Exact polarizability:  90.285  -1.315  59.610   0.000   0.000  49.074
 Approx polarizability: 156.117 -16.059  96.292  -0.001  -0.001  77.072

                      1                      2                      3
                      A                      A                      A
 Frequencies --    127.3815               258.5262               281.2070
 Red. masses --      1.0394                 4.3558                 7.2788
 Frc consts  --      0.0099                 0.1715                 0.3391
 IR Inten    --      0.0574                15.3993                 4.7569

                      4                      5                      6
                      A                      A                      A
 Frequencies --    469.5197               547.3556               930.9708
 Red. masses --      3.2115                 3.9696                 3.3017
 Frc consts  --      0.4171                 0.7007                 1.6860
 IR Inten    --      0.3811               119.5463                84.6063

                      7                      8                      9
                      A                      A                      A
 Frequencies --   1031.3918              1089.5412              1381.6170
 Red. masses --      1.5387                 1.7772                 1.2286
 Frc consts  --      0.9644                 1.2430                 1.3818
 IR Inten    --      0.6835               147.4895                21.9107

                     10                     11                     12
                      A                      A                      A
 Frequencies --   1459.2569              1461.2957              1883.8932
 Red. masses --      1.0450                 1.0482                12.0040
 Frc consts  --      1.3110                 1.3188                25.1008
 IR Inten    --     16.5760                 9.1112               473.4223

                     13                     14                     15
                      A                      A                      A
 Frequencies --   3046.8792              3122.1579              3136.1442
 Red. masses --      1.0319                 1.1002                 1.1061
 Frc consts  --      5.6443                 6.3188                 6.4098
 IR Inten    --      2.0539                 0.0076                 9.2778

 - Thermochemistry -
 -------------------
 Temperature   298.150 Kelvin.  Pressure   1.00000 Atm.
 Atom     1 has atomic number  6 and mass  12.00000

 Molecular mass:   169.91879 amu.
 Principal axes and moments of inertia in atomic units:
                           1         2         3
     Eigenvalues --   177.61954 834.973861001.49536
           X            0.99858   0.05322   0.00000
           Y           -0.05322   0.99858   0.00000
           Z            0.00000   0.00000   1.00000
 This molecule is an asymmetric top.
 Rotational symmetry number  1.
 Rotational temperatures (Kelvin)      0.48764     0.10373     0.08648
 Rotational constants (GHZ):          10.16071     2.16143     1.80205
 Zero-point vibrational energy     120985.2 (Joules/Mol)
                                   28.91615 (Kcal/Mol)
 Warning -- explicit consideration of   5 degrees of freedom as
           vibrations may cause significant error
 Vibrational temperatures:    183.27   371.96   404.59   675.53   787.52
          (Kelvin)           1339.46  1483.94  1567.60  1987.84  2099.54
                             2102.48  2710.50  4383.77  4492.08  4512.21

 Zero-point correction=                           0.046081 (Hartree/Particle)
 Thermal correction to Energy=                    0.051082
 Thermal correction to Enthalpy=                  0.052026
 Thermal correction to Gibbs Free Energy=         0.016111
 Sum of electronic and zero-point Energies=           -451.066632
 Sum of electronic and thermal Energies=              -451.061631
 Sum of electronic and thermal Enthalpies=            -451.060687
 Sum of electronic and thermal Free Energies=         -451.096602

                     E (Thermal)             CV                S
                      KCal/Mol        Cal/Mol-Kelvin    Cal/Mol-Kelvin
 Total                   32.054             15.203             75.589
 Electronic               0.000              0.000              0.000
 Translational            0.889              2.981             41.298
 Rotational               0.889              2.981             26.499
 Vibrational             30.277              9.242              7.792
 Vibration     1          0.611              1.926              2.985
 Vibration     2          0.667              1.748              1.672
 Vibration     3          0.681              1.708              1.526
 Vibration     4          0.827              1.318              0.739
 Vibration     5          0.903              1.145              0.550

 Optimization completed.
    -- Stationary point found.
 Normal termination of Gaussian 09 at Tue Mar 24 13:20:33 2015.
