 Gaussian 09, Revision D.01,
 Gaussian 09:  EM64L-G09RevD.01 24-Apr-2013

 ----------------------------------------------------------
 # opt freq b3lyp/gen geom=connectivity gfinput pseudo=read
 ----------------------------------------------------------

 ----------------------------------------------
 gen calculation-iac C H O=aug-ccpvtz/I=lanl2dz
 ----------------------------------------------
 Symbolic Z-matrix:
 Charge =  0 Multiplicity = 1

 SCF Done:  E(RB3LYP) =  -164.685980728     A.U. after   12 cycles
 SCF Done:  E(RB3LYP) =  -164.695654785     A.U. after   11 cycles
 SCF Done:  E(RB3LYP) =  -164.689892157     A.U. after   12 cycles
 SCF Done:  E(RB3LYP) =  -164.696152355     A.U. after    9 cycles
 SCF Done:  E(RB3LYP) =  -164.697493286     A.U. after   11 cycles
 SCF Done:  E(RB3LYP) =  -164.698024915     A.U. after   11 cycles
 SCF Done:  E(RB3LYP) =  -164.698325606     A.U. after   11 cycles
 SCF Done:  E(RB3LYP) =  -164.698434630     A.U. after   10 cycles
 SCF Done:  E(RB3LYP) =  -164.698454428     A.U. after   10 cycles
 SCF Done:  E(RB3LYP) =  -164.698455456     A.U. after    8 cycles
 Optimization completed.
    -- Stationary point found.
 Normal termination of Gaussian 09 at Tue Mar 24 11:37:22 2015.

 ------------------------------------------------------------------
 #N Geom=AllCheck Guess=TCheck SCRF=Check GenChk RB3LYP/ChkBas Freq
 ------------------------------------------------------------------

 Structure from the checkpoint file:  "/lustre/SCRATCH5/gau/mlawal/845980.sched01/Gau-12530.chk"
 ----------------------------------------------
 gen calculation-iac C H O=aug-ccpvtz/I=lanl2dz
 ----------------------------------------------
 Charge =  0 Multiplicity = 1

                         Standard orientation:
 ---------------------------------------------------------------------
 Center     Atomic      Atomic             Coordinates (Angstroms)
 Number     Number       Type             X           Y           Z
 ---------------------------------------------------------------------
      1          6           0       -2.129393   -1.076393   -0.000012
      2          1           0       -1.837348   -1.651351   -0.877622
      3          1           0       -3.202160   -0.892602    0.000267
      4          1           0       -1.837220   -1.651785    0.877276
      5          6           0       -1.401660    0.234420    0.000020
      6          8           0       -1.866701    1.316774   -0.000005
      7         53           0        0.811258   -0.024276    0.000001
 ---------------------------------------------------------------------

 SCF Done:  E(RB3LYP) =  -164.698455456     A.U. after    1 cycles

 The electronic state is 1-A.
 Alpha  occ. eigenvalues --  -19.18225 -10.32969 -10.21803  -1.11452  -0.79324
 Alpha  occ. eigenvalues --   -0.68810  -0.56335  -0.49253  -0.48707  -0.48703
 Alpha  occ. eigenvalues --   -0.41888  -0.41512  -0.29126  -0.27549  -0.26866
 Alpha virt. eigenvalues --   -0.05745  -0.05155  -0.01705   0.01551   0.01613
 Alpha virt. eigenvalues --    0.02278   0.05612   0.06247   0.06697   0.07288
 Alpha virt. eigenvalues --    0.07600   0.08276   0.10078   0.10227   0.12966

 Mulliken charges:
               1
     1  C   -0.331385
     2  H    0.254370
     3  H    0.187596
     4  H    0.254357
     5  C   -0.082551
     6  O   -0.340592
     7  I    0.058204
 Sum of Mulliken charges =   0.00000

 Dipole moment (field-independent basis, Debye):
    X=             -1.4314    Y=             -2.4065    Z=              0.0000  Tot=              2.8001
 Quadrupole moment (field-independent basis, Debye-Ang):
   XX=            -34.9086   YY=            -40.0922   ZZ=            -37.9300
   XY=              5.1427   XZ=             -0.0004   YZ=             -0.0001

  Exact polarizability:  86.553  -1.815  54.062   0.000   0.000  43.024
 Approx polarizability: 145.543 -16.659  78.935  -0.001   0.000  58.726

                      1                      2                      3
                      A                      A                      A
 Frequencies --    128.2822               264.2737               287.1278
 Red. masses --      1.0399                 4.0915                 8.1278
 Frc consts  --      0.0101                 0.1684                 0.3948
 IR Inten    --      0.0373                13.4577                 5.4359

                      4                      5                      6
                      A                      A                      A
 Frequencies --    475.1987               552.4485               935.5268
 Red. masses --      3.1986                 3.9579                 3.2420
 Frc consts  --      0.4256                 0.7117                 1.6718
 IR Inten    --      0.3075               115.0823                82.9994

                      7                      8                      9
                      A                      A                      A
 Frequencies --   1033.4216              1092.7518              1382.9009
 Red. masses --      1.5418                 1.7959                 1.2285
 Frc consts  --      0.9701                 1.2635                 1.3842
 IR Inten    --      0.6358               146.4342                22.4599

                     10                     11                     12
                      A                      A                      A
 Frequencies --   1460.9374              1461.9496              1882.4914
 Red. masses --      1.0448                 1.0496                11.9750
 Frc consts  --      1.3139                 1.3217                25.0031
 IR Inten    --     15.3844                 9.4277               471.0173

                     13                     14                     15
                      A                      A                      A
 Frequencies --   3048.3659              3121.4031              3137.8588
 Red. masses --      1.0321                 1.1001                 1.1062
 Frc consts  --      5.6505                 6.3149                 6.4174
 IR Inten    --      1.8284                 0.0001                 8.6224

 - Thermochemistry -
 -------------------
 Temperature   298.150 Kelvin.  Pressure   1.00000 Atm.
 Atom     1 has atomic number  6 and mass  12.00000

 Molecular mass:   169.91879 amu.
 Principal axes and moments of inertia in atomic units:
                           1         2         3
     Eigenvalues --   177.21173 832.49475 998.62273
           X            0.99858   0.05330   0.00000
           Y           -0.05330   0.99858   0.00000
           Z            0.00000   0.00000   1.00000
 This molecule is an asymmetric top.
 Rotational symmetry number  1.
 Rotational temperatures (Kelvin)      0.48876     0.10404     0.08673
 Rotational constants (GHZ):          10.18410     2.16787     1.80723
 Zero-point vibrational energy     121211.2 (Joules/Mol)
                                   28.97018 (Kcal/Mol)
 Warning -- explicit consideration of   5 degrees of freedom as
           vibrations may cause significant error
 Vibrational temperatures:    184.57   380.23   413.11   683.70   794.85
          (Kelvin)           1346.01  1486.86  1572.22  1989.68  2101.96
                             2103.42  2708.48  4385.91  4491.00  4514.67

 Zero-point correction=                           0.046167 (Hartree/Particle)
 Thermal correction to Energy=                    0.051142
 Thermal correction to Enthalpy=                  0.052086
 Thermal correction to Gibbs Free Energy=         0.016231
 Sum of electronic and zero-point Energies=           -164.652289
 Sum of electronic and thermal Energies=              -164.647314
 Sum of electronic and thermal Enthalpies=            -164.646370
 Sum of electronic and thermal Free Energies=         -164.682225

                     E (Thermal)             CV                S
                      KCal/Mol        Cal/Mol-Kelvin    Cal/Mol-Kelvin
 Total                   32.092             15.146             75.464
 Electronic               0.000              0.000              0.000
 Translational            0.889              2.981             41.298
 Rotational               0.889              2.981             26.491
 Vibrational             30.314              9.184              7.675
 Vibration     1          0.611              1.925              2.972
 Vibration     2          0.671              1.738              1.633
 Vibration     3          0.684              1.698              1.491
 Vibration     4          0.832              1.305              0.723
 Vibration     5          0.908              1.134              0.539

 Optimization completed.
    -- Stationary point found.
 Normal termination of Gaussian 09 at Tue Mar 24 11:41:13 2015.
