 Gaussian 09, Revision D.01,
 Gaussian 09:  EM64L-G09RevD.01 24-Apr-2013

 ----------------------------------------------------------
 # opt freq b3lyp/gen geom=connectivity gfinput pseudo=read
 ----------------------------------------------------------

 ----------------------------------------------
 gen calculation-iac C H O=6-31+g(d)/I=Def2TZVP
 ----------------------------------------------
 Symbolic Z-matrix:
 Charge =  0 Multiplicity = 1

 SCF Done:  E(RB3LYP) =  -451.052496892     A.U. after   13 cycles
 SCF Done:  E(RB3LYP) =  -451.054036123     A.U. after   11 cycles
 SCF Done:  E(RB3LYP) =  -451.054173985     A.U. after   10 cycles
 SCF Done:  E(RB3LYP) =  -451.054178289     A.U. after    9 cycles
 SCF Done:  E(RB3LYP) =  -451.054179322     A.U. after    8 cycles
 SCF Done:  E(RB3LYP) =  -451.054179227     A.U. after    8 cycles
 Optimization completed.
    -- Stationary point found.
 Normal termination of Gaussian 09 at Fri Feb 27 11:26:16 2015.

 ------------------------------------------------------------------
 #N Geom=AllCheck Guess=TCheck SCRF=Check GenChk RB3LYP/ChkBas Freq
 ------------------------------------------------------------------

 Structure from the checkpoint file:  "/lustre/SCRATCH5/gau/Gau-6668.chk"
 ----------------------------------------------
 gen calculation-iac C H O=6-31+g(d)/I=Def2TZVP
 ----------------------------------------------
 Charge =  0 Multiplicity = 1

                         Standard orientation:
 ---------------------------------------------------------------------
 Center     Atomic      Atomic             Coordinates (Angstroms)
 Number     Number       Type             X           Y           Z
 ---------------------------------------------------------------------
      1          6           0        2.134184    1.079892    0.000124
      2          1           0        1.848839    1.660295   -0.883066
      3          1           0        3.211294    0.887858    0.000779
      4          1           0        1.847700    1.659885    0.883221
      5          6           0        1.394966   -0.233870   -0.000729
      6          8           0        1.864960   -1.326039    0.000229
      7         53           0       -0.811366    0.024984    0.000016
 ---------------------------------------------------------------------

 SCF Done:  E(RB3LYP) =  -451.054179227     A.U. after    1 cycles

 The electronic state is 1-A.
 Alpha  occ. eigenvalues --  -19.20721 -10.34382 -10.22661  -6.84436  -4.86748
 Alpha  occ. eigenvalues --   -4.85817  -4.85708  -1.91563  -1.91280  -1.91196
 Alpha  occ. eigenvalues --   -1.90387  -1.90384  -1.11168  -0.79227  -0.70363
 Alpha  occ. eigenvalues --   -0.56515  -0.49126  -0.48449  -0.48407  -0.41771
 Alpha  occ. eigenvalues --   -0.41303  -0.29098  -0.27562  -0.26900
 Alpha virt. eigenvalues --   -0.05930  -0.05578   0.00025   0.03414   0.04509
 Alpha virt. eigenvalues --    0.04620   0.07788   0.08121   0.08710   0.10427
 Alpha virt. eigenvalues --    0.14411   0.15829   0.17019   0.18129   0.18842

 Mulliken charges:
               1
     1  C   -0.790906
     2  H    0.250609
     3  H    0.240089
     4  H    0.250661
     5  C    0.480666
     6  O   -0.282312
     7  I   -0.148807
 Sum of Mulliken charges =   0.00000

 Dipole moment (field-independent basis, Debye):
    X=              1.3172    Y=              2.4747    Z=             -0.0003  Tot=              2.8034
 Quadrupole moment (field-independent basis, Debye-Ang):
   XX=            -41.6817   YY=            -46.9806   ZZ=            -44.6411
   XY=              5.3737   XZ=             -0.0032   YZ=              0.0017

  Exact polarizability:  85.553  -2.651  56.387  -0.001  -0.003  45.451
 Approx polarizability: 148.754 -18.456  91.949  -0.009  -0.008  70.879

                      1                      2                      3
                      A                      A                      A
 Frequencies --    127.5036               261.2183               283.7511
 Red. masses --      1.0409                 4.1993                 7.9177
 Frc consts  --      0.0100                 0.1688                 0.3756
 IR Inten    --      0.0881                13.9146                 4.4379

                      4                      5                      6
                      A                      A                      A
 Frequencies --    466.6205               549.4611               940.1385
 Red. masses --      3.2928                 3.9847                 3.2047
 Frc consts  --      0.4224                 0.7088                 1.6689
 IR Inten    --      0.3807               118.5950                83.1298

                      7                      8                      9
                      A                      A                      A
 Frequencies --   1038.1412              1101.2758              1401.9909
 Red. masses --      1.5160                 1.7954                 1.2297
 Frc consts  --      0.9626                 1.2829                 1.4241
 IR Inten    --      0.6174               152.8296                24.0924

                     10                     11                     12
                      A                      A                      A
 Frequencies --   1481.8861              1483.7496              1884.0617
 Red. masses --      1.0455                 1.0479                11.9448
 Frc consts  --      1.3528                 1.3592                24.9815
 IR Inten    --     19.2257                11.0662               468.9223

                     13                     14                     15
                      A                      A                      A
 Frequencies --   3064.9701              3143.4121              3157.7343
 Red. masses --      1.0323                 1.1011                 1.1065
 Frc consts  --      5.7138                 6.4104                 6.5006
 IR Inten    --      2.2359                 0.0195                 9.4028

 - Thermochemistry -
 -------------------
 Temperature   298.150 Kelvin.  Pressure   1.00000 Atm.
 Atom     1 has atomic number  6 and mass  12.00000

 Molecular mass:   169.91879 amu.
 Principal axes and moments of inertia in atomic units:
                           1         2         3
     Eigenvalues --   179.15130 832.850381000.77355
           X            0.99855   0.05383   0.00001
           Y           -0.05383   0.99855   0.00001
           Z           -0.00001  -0.00001   1.00000
 This molecule is an asymmetric top.
 Rotational symmetry number  1.
 Rotational temperatures (Kelvin)      0.48347     0.10400     0.08655
 Rotational constants (GHZ):          10.07384     2.16695     1.80335
 Zero-point vibrational energy     121934.8 (Joules/Mol)
                                   29.14313 (Kcal/Mol)
 Warning -- explicit consideration of   5 degrees of freedom as
           vibrations may cause significant error
 Vibrational temperatures:    183.45   375.83   408.25   671.36   790.55
          (Kelvin)           1352.65  1493.65  1584.49  2017.15  2132.10
                             2134.78  2710.74  4409.80  4522.66  4543.27

 Zero-point correction=                           0.046443 (Hartree/Particle)
 Thermal correction to Energy=                    0.051432
 Thermal correction to Enthalpy=                  0.052376
 Thermal correction to Gibbs Free Energy=         0.016480
 Sum of electronic and zero-point Energies=           -451.007737
 Sum of electronic and thermal Energies=              -451.002747
 Sum of electronic and thermal Enthalpies=            -451.001803
 Sum of electronic and thermal Free Energies=         -451.037699

                     E (Thermal)             CV                S
                      KCal/Mol        Cal/Mol-Kelvin    Cal/Mol-Kelvin
 Total                   32.274             15.147             75.549
 Electronic               0.000              0.000              0.000
 Translational            0.889              2.981             41.298
 Rotational               0.889              2.981             26.504
 Vibrational             30.497              9.185              7.747
 Vibration     1          0.611              1.926              2.983
 Vibration     2          0.669              1.744              1.654
 Vibration     3          0.682              1.704              1.511
 Vibration     4          0.824              1.324              0.747
 Vibration     5          0.905              1.141              0.545

 Optimization completed.
    -- Stationary point found.
 Normal termination of Gaussian 09 at Fri Feb 27 11:26:49 2015.
