 Gaussian 09, Revision D.01,
 Gaussian 09:  EM64L-G09RevD.01 24-Apr-2013

 ----------------------------------------------------------------------
 # opt=(calcfc,ts,noeigentest) freq=noraman b3lyp/gen geom=connectivity
  pseudo=read gfinput
 ----------------------------------------------------------------------

 --------------------------
 ts624cl-6-31+g(d)/def2tzvp
 --------------------------
 Symbolic Z-matrix:
 Charge =  0 Multiplicity = 1

 SCF Done:  E(RB3LYP) =  -844.889287686     A.U. after   13 cycles
 SCF Done:  E(RB3LYP) =  -844.901081503     A.U. after   12 cycles
 SCF Done:  E(RB3LYP) =  -844.903281751     A.U. after   11 cycles
 SCF Done:  E(RB3LYP) =  -844.903480181     A.U. after   11 cycles
 SCF Done:  E(RB3LYP) =  -844.903384047     A.U. after   11 cycles
 SCF Done:  E(RB3LYP) =  -844.903545193     A.U. after   11 cycles
 SCF Done:  E(RB3LYP) =  -844.903550584     A.U. after    9 cycles
 SCF Done:  E(RB3LYP) =  -844.903551007     A.U. after    8 cycles
 SCF Done:  E(RB3LYP) =  -844.903532141     A.U. after   10 cycles
 SCF Done:  E(RB3LYP) =  -844.903550908     A.U. after    9 cycles
 Optimization completed.
    -- Stationary point found.
 Normal termination of Gaussian 09 at Thu Feb 19 15:38:08 2015.

 ------------------------------------------------------------------
 #N Geom=AllCheck Guess=TCheck SCRF=Check GenChk RB3LYP/ChkBas Freq
 ------------------------------------------------------------------

 Structure from the checkpoint file:  "/lustre/SCRATCH5/gau/Gau-24590.chk"
 --------------------------
 ts624cl-6-31+g(d)/def2tzvp
 --------------------------
 Charge =  0 Multiplicity = 1

                         Standard orientation:
 ---------------------------------------------------------------------
 Center     Atomic      Atomic             Coordinates (Angstroms)
 Number     Number       Type             X           Y           Z
 ---------------------------------------------------------------------
      1          6           0        0.826267    0.106562    0.424120
      2          6           0       -0.482830    2.075574   -0.634678
      3          1           0       -1.261102    2.277781   -1.377009
      4          1           0       -0.876514    2.257302    0.373747
      5          1           0        0.366198    2.737483   -0.825841
      6          6           0        1.950340    1.083978    0.706063
      7          1           0        2.666367    0.583721    1.363386
      8          1           0        2.462995    1.388156   -0.209090
      9          1           0        1.557326    1.959283    1.233898
     10          8           0       -0.078930    0.708794   -0.803603
     11          8           0       -1.765130   -0.862052   -0.114759
     12          6           0       -3.104699   -0.440163    0.205337
     13          1           0       -3.653184   -0.325144   -0.731921
     14          1           0       -3.572583   -1.221691    0.808104
     15          1           0       -3.099193    0.504480    0.760754
     16          1           0       -1.099939   -0.822264    0.732902
     17          1           0       -1.098936   -0.082865   -0.657131
     18         17           0        1.572555   -1.352802   -0.549064
     19          8           0        0.061644   -0.248531    1.375517
 ---------------------------------------------------------------------

 SCF Done:  E(RB3LYP) =  -844.903550908     A.U. after    1 cycles

 The electronic state is 1-A.
 Alpha  occ. eigenvalues -- -101.47871 -19.20867 -19.19142 -19.12907 -10.33998
 Alpha  occ. eigenvalues --  -10.26298 -10.24982 -10.18671  -9.41159  -7.17229
 Alpha  occ. eigenvalues --   -7.16490  -7.16464  -1.09799  -1.05228  -1.01114
 Alpha  occ. eigenvalues --   -0.80193  -0.74461  -0.73021  -0.70730  -0.57423
 Alpha  occ. eigenvalues --   -0.56584  -0.55719  -0.49696  -0.48715  -0.47655
 Alpha  occ. eigenvalues --   -0.47160  -0.44884  -0.43274  -0.42256  -0.41193
 Alpha  occ. eigenvalues --   -0.38736  -0.37698  -0.36088  -0.31339  -0.29471
 Alpha  occ. eigenvalues --   -0.28316  -0.27784  -0.26506
 Alpha virt. eigenvalues --   -0.00968   0.00969   0.01186   0.01405   0.02926
 Alpha virt. eigenvalues --    0.03350   0.04268   0.05119   0.06372   0.07419
 Alpha virt. eigenvalues --    0.07878   0.08085   0.09189   0.09873   0.11054

 Mulliken charges:
               1
     1  C    0.381931
     2  C   -0.390497
     3  H    0.203761
     4  H    0.216127
     5  H    0.214251
     6  C   -0.702638
     7  H    0.244550
     8  H    0.233288
     9  H    0.215798
    10  O   -0.524412
    11  O   -0.769093
    12  C   -0.364117
    13  H    0.213149
    14  H    0.217590
    15  H    0.203418
    16  H    0.568111
    17  H    0.596426
    18  Cl  -0.238737
    19  O   -0.518906
 Sum of Mulliken charges =   0.00000

 Dipole moment (field-independent basis, Debye):
    X=             -4.0140    Y=              3.8883    Z=             -0.1892  Tot=              5.5917
 Quadrupole moment (field-independent basis, Debye-Ang):
   XX=            -47.1202   YY=            -56.2299   ZZ=            -62.2935
   XY=              3.3073   XZ=              1.2778   YZ=             -1.5719

  Exact polarizability:  92.360  -2.777  84.617  -0.974   1.895  72.397
 Approx polarizability: 115.192  -6.513 116.040  -6.217   5.427 113.430

 ******    1 imaginary frequencies (negative Signs) ******

                      1                      2                      3
                      A                      A                      A
 Frequencies --  -1035.9686                60.3275               105.7737
 Red. masses --      1.2567                 4.5831                 2.7141
 Frc consts  --      0.7947                 0.0098                 0.0179
 IR Inten    --    431.7428                 2.8338                 0.3659

                      4                      5                      6
                      A                      A                      A
 Frequencies --    123.5146               146.2640               180.5918
 Red. masses --      1.1485                 2.6925                 4.0261
 Frc consts  --      0.0103                 0.0339                 0.0774
 IR Inten    --      0.6678                 9.9612                 4.1143

                      7                      8                      9
                      A                      A                      A
 Frequencies --    193.4659               239.4092               273.5627
 Red. masses --      1.0897                 2.1579                 1.6105
 Frc consts  --      0.0240                 0.0729                 0.0710
 IR Inten    --      0.1640                14.2555                33.5798

                     10                     11                     12
                      A                      A                      A
 Frequencies --    287.4114               314.4437               327.2438
 Red. masses --      2.3958                 3.3078                 6.4980
 Frc consts  --      0.1166                 0.1927                 0.4100
 IR Inten    --      5.0402                 6.2179               135.5254

                     13                     14                     15
                      A                      A                      A
 Frequencies --    352.1659               407.3792               519.7576
 Red. masses --      4.6101                 5.4028                 4.3595
 Frc consts  --      0.3369                 0.5283                 0.6939
 IR Inten    --     22.1425                46.4560               131.2393

                     16                     17                     18
                      A                      A                      A
 Frequencies --    578.7617               624.1482               639.7722
 Red. masses --      5.0101                 4.3267                 3.5648
 Frc consts  --      0.9888                 0.9931                 0.8597
 IR Inten    --    183.5586               126.5586               189.6611

                     19                     20                     21
                      A                      A                      A
 Frequencies --    968.7053              1024.2753              1055.4160
 Red. masses --      3.7386                 2.4723                 2.9320
 Frc consts  --      2.0670                 1.5282                 1.9243
 IR Inten    --    149.3940               267.4437                77.5582

                     22                     23                     24
                      A                      A                      A
 Frequencies --   1074.1424              1114.5989              1131.0602
 Red. masses --      1.8240                 1.5618                 1.6466
 Frc consts  --      1.2400                 1.1432                 1.2411
 IR Inten    --    209.6393               158.5871               145.3729

                     25                     26                     27
                      A                      A                      A
 Frequencies --   1172.4595              1180.5360              1199.3312
 Red. masses --      1.2286                 1.2867                 1.4344
 Frc consts  --      0.9951                 1.0566                 1.2156
 IR Inten    --    100.7844                 8.3169                83.2051

                     28                     29                     30
                      A                      A                      A
 Frequencies --   1211.7484              1368.5798              1423.1844
 Red. masses --      1.2866                 1.5747                 1.2546
 Frc consts  --      1.1131                 1.7378                 1.4972
 IR Inten    --    192.0635              1184.2077                67.8210

                     31                     32                     33
                      A                      A                      A
 Frequencies --   1471.3619              1479.3793              1499.1317
 Red. masses --      1.1134                 1.1606                 1.0937
 Frc consts  --      1.4201                 1.4966                 1.4483
 IR Inten    --     72.1124                12.5333                59.1994

                     34                     35                     36
                      A                      A                      A
 Frequencies --   1501.6558              1513.2569              1519.5228
 Red. masses --      1.0908                 1.0583                 1.0527
 Frc consts  --      1.4492                 1.4279                 1.4321
 IR Inten    --     30.9796                 8.2007                 6.9553

                     37                     38                     39
                      A                      A                      A
 Frequencies --   1522.6656              1531.6953              1541.8652
 Red. masses --      1.0564                 1.1445                 1.4671
 Frc consts  --      1.4430                 1.5821                 2.0549
 IR Inten    --     30.8395                69.8351               319.9505

                     40                     41                     42
                      A                      A                      A
 Frequencies --   1577.7295              1857.2391              2269.1688
 Red. masses --      1.1784                 1.1690                 1.0520
 Frc consts  --      1.7282                 2.3758                 3.1916
 IR Inten    --    677.0769               426.1173              1285.9665

                     43                     44                     45
                      A                      A                      A
 Frequencies --   3040.4690              3063.1993              3071.9282
 Red. masses --      1.0343                 1.0337                 1.0362
 Frc consts  --      5.6334                 5.7150                 5.7611
 IR Inten    --     38.0178                27.9003                13.8364

                     46                     47                     48
                      A                      A                      A
 Frequencies --   3118.3582              3140.8370              3143.7547
 Red. masses --      1.1006                 1.1053                 1.1022
 Frc consts  --      6.3057                 6.4245                 6.4180
 IR Inten    --     22.5460                26.6941                17.0528

                     49                     50                     51
                      A                      A                      A
 Frequencies --   3145.8476              3165.6835              3169.2933
 Red. masses --      1.1011                 1.1044                 1.1085
 Frc consts  --      6.4202                 6.5210                 6.5603
 IR Inten    --      9.9404                 7.0229                12.7380

 - Thermochemistry -
 -------------------
 Temperature   298.150 Kelvin.  Pressure   1.00000 Atm.
 Atom     1 has atomic number  6 and mass  12.00000

 Molecular mass:   142.03967 amu.
 Principal axes and moments of inertia in atomic units:
                           1         2         3
     Eigenvalues --   900.286931568.126291942.72633
           X            0.99830   0.05678   0.01332
           Y           -0.05639   0.99801  -0.02808
           Z           -0.01489   0.02728   0.99952
 This molecule is an asymmetric top.
 Rotational symmetry number  1.
 Warning -- assumption of classical behavior for rotation
           may cause significant error
 Rotational temperatures (Kelvin)      0.09621     0.05523     0.04458
 Rotational constants (GHZ):           2.00463     1.15089     0.92897
    1 imaginary frequencies ignored.
 Zero-point vibrational energy     398608.1 (Joules/Mol)
                                   95.26963 (Kcal/Mol)
 Warning -- explicit consideration of  15 degrees of freedom as
           vibrations may cause significant error
 Vibrational temperatures:     86.80   152.18   177.71   210.44   259.83
          (Kelvin)            278.35   344.46   393.60   413.52   452.41
                              470.83   506.69   586.13   747.81   832.71
                              898.01   920.49  1393.75  1473.70  1518.51
                             1545.45  1603.66  1627.34  1686.91  1698.53
                             1725.57  1743.43  1969.08  2047.64  2116.96
                             2128.49  2156.91  2160.55  2177.24  2186.25
                             2190.77  2203.77  2218.40  2270.00  2672.15
                             3264.82  4374.55  4407.26  4419.81  4486.62
                             4518.96  4523.16  4526.17  4554.71  4559.90

 Zero-point correction=                           0.151822 (Hartree/Particle)
 Thermal correction to Energy=                    0.162516
 Thermal correction to Enthalpy=                  0.163460
 Thermal correction to Gibbs Free Energy=         0.115722
 Sum of electronic and zero-point Energies=           -844.751729
 Sum of electronic and thermal Energies=              -844.741035
 Sum of electronic and thermal Enthalpies=            -844.740091
 Sum of electronic and thermal Free Energies=         -844.787829

                     E (Thermal)             CV                S
                      KCal/Mol        Cal/Mol-Kelvin    Cal/Mol-Kelvin
 Total                  101.980             36.842            100.474
 Electronic               0.000              0.000              0.000
 Translational            0.889              2.981             40.764
 Rotational               0.889              2.981             29.396
 Vibrational            100.203             30.881             30.313
 Vibration     1          0.597              1.973              4.446
 Vibration     2          0.605              1.945              3.345
 Vibration     3          0.610              1.929              3.045
 Vibration     4          0.617              1.907              2.720
 Vibration     5          0.630              1.866              2.322
 Vibration     6          0.635              1.849              2.194
 Vibration     7          0.657              1.780              1.807
 Vibration     8          0.676              1.722              1.574
 Vibration     9          0.685              1.697              1.489
 Vibration    10          0.702              1.646              1.339
 Vibration    11          0.711              1.621              1.274
 Vibration    12          0.729              1.571              1.156
 Vibration    13          0.772              1.454              0.936
 Vibration    14          0.875              1.206              0.611
 Vibration    15          0.935              1.077              0.488

 Optimization completed.
    -- Stationary point found.
 Normal termination of Gaussian 09 at Thu Feb 19 15:40:47 2015.
