 Gaussian 09, Revision D.01,
 Gaussian 09:  EM64L-G09RevD.01 24-Apr-2013

 ----------------------------------------------------------------------
 # opt=(calcfc,ts,noeigentest) freq=noraman b3lyp/gen geom=connectivity
  pseudo=read gfinput
 ----------------------------------------------------------------------

 ------------------------
 ts624cl-6-31+g(d)/dgdzvp
 ------------------------
 Symbolic Z-matrix:
 Charge =  0 Multiplicity = 1

 SCF Done:  E(RB3LYP) =  -844.826614143     A.U. after   13 cycles
 SCF Done:  E(RB3LYP) =  -844.838637931     A.U. after   11 cycles
 SCF Done:  E(RB3LYP) =  -844.841033112     A.U. after   11 cycles
 SCF Done:  E(RB3LYP) =  -844.841274376     A.U. after   11 cycles
 SCF Done:  E(RB3LYP) =  -844.841282590     A.U. after   11 cycles
 SCF Done:  E(RB3LYP) =  -844.840412082     A.U. after   11 cycles
 SCF Done:  E(RB3LYP) =  -844.841230120     A.U. after   11 cycles
 SCF Done:  E(RB3LYP) =  -844.841318033     A.U. after   11 cycles
 SCF Done:  E(RB3LYP) =  -844.841322371     A.U. after    9 cycles
 SCF Done:  E(RB3LYP) =  -844.841321278     A.U. after    8 cycles
 SCF Done:  E(RB3LYP) =  -844.841321465     A.U. after    8 cycles
 SCF Done:  E(RB3LYP) =  -844.841321459     A.U. after    7 cycles
 SCF Done:  E(RB3LYP) =  -844.841321394     A.U. after    7 cycles
 Optimization completed.
    -- Stationary point found.
 Normal termination of Gaussian 09 at Mon Feb 23 12:45:07 2015.

 ------------------------------------------------------------------
 #N Geom=AllCheck Guess=TCheck SCRF=Check GenChk RB3LYP/ChkBas Freq
 ------------------------------------------------------------------

 Structure from the checkpoint file:  "/lustre/SCRATCH5/gau/Gau-12524.chk"
 ------------------------
 ts624cl-6-31+g(d)/dgdzvp
 ------------------------
 Charge =  0 Multiplicity = 1

                         Standard orientation:
 ---------------------------------------------------------------------
 Center     Atomic      Atomic             Coordinates (Angstroms)
 Number     Number       Type             X           Y           Z
 ---------------------------------------------------------------------
      1          6           0        0.817594    0.124646    0.430756
      2          6           0       -0.481435    2.073858   -0.650154
      3          1           0       -1.252769    2.265387   -1.402194
      4          1           0       -0.883164    2.270078    0.352235
      5          1           0        0.370336    2.731272   -0.843834
      6          6           0        1.951158    1.094140    0.698857
      7          1           0        2.663812    0.595035    1.360337
      8          1           0        2.463629    1.383920   -0.220854
      9          1           0        1.566002    1.978483    1.217891
     10          8           0       -0.078344    0.703460   -0.797299
     11          8           0       -1.767679   -0.865493   -0.108506
     12          6           0       -3.110674   -0.442743    0.200722
     13          1           0       -3.652195   -0.336699   -0.741381
     14          1           0       -3.580000   -1.220817    0.806505
     15          1           0       -3.109061    0.506189    0.748391
     16          1           0       -1.114059   -0.822534    0.739248
     17          1           0       -1.101572   -0.091443   -0.651878
     18         17           0        1.579528   -1.366205   -0.545214
     19          8           0        0.060675   -0.229567    1.383690
 ---------------------------------------------------------------------

 SCF Done:  E(RB3LYP) =  -844.841321394     A.U. after    1 cycles

 The electronic state is 1-A.
 Alpha  occ. eigenvalues -- -101.51038 -19.21320 -19.19412 -19.13091 -10.34048
 Alpha  occ. eigenvalues --  -10.26565 -10.25177 -10.18756  -9.41391  -7.18160
 Alpha  occ. eigenvalues --   -7.17339  -7.17307  -1.10199  -1.05652  -1.01326
 Alpha  occ. eigenvalues --   -0.79669  -0.74634  -0.73146  -0.70986  -0.57624
 Alpha  occ. eigenvalues --   -0.56930  -0.55968  -0.49816  -0.48957  -0.47888
 Alpha  occ. eigenvalues --   -0.47438  -0.44960  -0.43324  -0.42469  -0.41309
 Alpha  occ. eigenvalues --   -0.38705  -0.37935  -0.36333  -0.31569  -0.29344
 Alpha  occ. eigenvalues --   -0.27981  -0.27727  -0.26405
 Alpha virt. eigenvalues --   -0.01104   0.00803   0.00944   0.01259   0.02802
 Alpha virt. eigenvalues --    0.03253   0.04198   0.05036   0.06441   0.07349
 Alpha virt. eigenvalues --    0.07970   0.08224   0.09102   0.09865   0.11084

 Mulliken charges:
               1
     1  C    0.331521
     2  C   -0.409639
     3  H    0.204325
     4  H    0.216381
     5  H    0.215580
     6  C   -0.741762
     7  H    0.246289
     8  H    0.234426
     9  H    0.216243
    10  O   -0.524091
    11  O   -0.769565
    12  C   -0.365946
    13  H    0.214647
    14  H    0.219069
    15  H    0.204529
    16  H    0.571238
    17  H    0.600712
    18  Cl  -0.165265
    19  O   -0.498692
 Sum of Mulliken charges =   0.00000

 Dipole moment (field-independent basis, Debye):
    X=             -4.3350    Y=              4.1080    Z=             -0.1468  Tot=              5.9741
 Quadrupole moment (field-independent basis, Debye-Ang):
   XX=            -47.1125   YY=            -56.5615   ZZ=            -62.3623
   XY=              3.8663   XZ=              1.4598   YZ=             -1.8540

  Exact polarizability:  91.015  -3.285  83.960  -1.467   2.523  71.367
 Approx polarizability: 111.139  -7.952 113.366  -7.507   7.204 109.483

 ******    1 imaginary frequencies (negative Signs) ******

                      1                      2                      3
                      A                      A                      A
 Frequencies --   -986.2528                59.4805               104.7774
 Red. masses --      1.2789                 4.5880                 2.7201
 Frc consts  --      0.7329                 0.0096                 0.0176
 IR Inten    --    479.2613                 2.7520                 0.2926

                      4                      5                      6
                      A                      A                      A
 Frequencies --    123.3447               145.2130               179.0522
 Red. masses --      1.1872                 2.5056                 4.0177
 Frc consts  --      0.0106                 0.0311                 0.0759
 IR Inten    --      0.9095                10.3933                 4.3782

                      7                      8                      9
                      A                      A                      A
 Frequencies --    192.5570               238.9340               270.4785
 Red. masses --      1.0911                 2.3578                 2.0256
 Frc consts  --      0.0238                 0.0793                 0.0873
 IR Inten    --      0.1692                23.4864                60.9909

                     10                     11                     12
                      A                      A                      A
 Frequencies --    288.1895               308.2097               318.0486
 Red. masses --      1.8971                 3.7590                 4.2956
 Frc consts  --      0.0928                 0.2104                 0.2560
 IR Inten    --      2.6117                74.7974                36.3427

                     13                     14                     15
                      A                      A                      A
 Frequencies --    351.6624               402.6571               522.1888
 Red. masses --      4.4087                 5.2187                 4.4552
 Frc consts  --      0.3212                 0.4985                 0.7158
 IR Inten    --     34.8253                48.4312               117.2710

                     16                     17                     18
                      A                      A                      A
 Frequencies --    579.8820               625.3457               638.5836
 Red. masses --      5.0621                 4.1372                 3.4464
 Frc consts  --      1.0029                 0.9532                 0.8280
 IR Inten    --    202.7748                72.8638               223.2781

                     19                     20                     21
                      A                      A                      A
 Frequencies --    969.5424              1022.6893              1051.9630
 Red. masses --      3.8493                 2.3342                 3.0137
 Frc consts  --      2.1319                 1.4384                 1.9650
 IR Inten    --    146.2475               291.8942                70.1719

                     22                     23                     24
                      A                      A                      A
 Frequencies --   1073.0153              1110.3985              1132.3653
 Red. masses --      1.8312                 1.5245                 1.6781
 Frc consts  --      1.2422                 1.1074                 1.2678
 IR Inten    --    208.1465               167.3046               118.0704

                     25                     26                     27
                      A                      A                      A
 Frequencies --   1171.4828              1180.0434              1199.4260
 Red. masses --      1.2190                 1.2929                 1.4373
 Frc consts  --      0.9857                 1.0607                 1.2183
 IR Inten    --    103.2037                 6.8380                86.8449

                     28                     29                     30
                      A                      A                      A
 Frequencies --   1211.2436              1381.7664              1424.1160
 Red. masses --      1.2949                 1.5198                 1.2564
 Frc consts  --      1.1193                 1.7097                 1.5013
 IR Inten    --    182.3967              1029.5848                73.7367

                     31                     32                     33
                      A                      A                      A
 Frequencies --   1468.4392              1480.0870              1499.4578
 Red. masses --      1.1074                 1.1515                 1.0798
 Frc consts  --      1.4070                 1.4862                 1.4305
 IR Inten    --     88.3465                 9.4046                46.8281

                     34                     35                     36
                      A                      A                      A
 Frequencies --   1502.8250              1512.8948              1519.5048
 Red. masses --      1.0909                 1.0599                 1.0519
 Frc consts  --      1.4516                 1.4294                 1.4310
 IR Inten    --     34.3716                 8.2999                 6.8895

                     37                     38                     39
                      A                      A                      A
 Frequencies --   1522.4054              1532.5918              1546.9203
 Red. masses --      1.0574                 1.0921                 1.6920
 Frc consts  --      1.4439                 1.5114                 2.3855
 IR Inten    --     31.3482                34.3804               447.9453

                     40                     41                     42
                      A                      A                      A
 Frequencies --   1577.1782              1877.2010              2328.7951
 Red. masses --      1.1806                 1.1582                 1.0569
 Frc consts  --      1.7302                 2.4047                 3.3772
 IR Inten    --    640.6210               364.7053              1397.8132

                     43                     44                     45
                      A                      A                      A
 Frequencies --   3041.9865              3065.4590              3071.6825
 Red. masses --      1.0344                 1.0336                 1.0370
 Frc consts  --      5.6396                 5.7227                 5.7649
 IR Inten    --     36.9434                25.7729                15.2781

                     46                     47                     48
                      A                      A                      A
 Frequencies --   3120.8216              3143.0416              3146.6566
 Red. masses --      1.1005                 1.1044                 1.1013
 Frc consts  --      6.3150                 6.4280                 6.4250
 IR Inten    --     21.9417                23.4312                26.0033

                     49                     50                     51
                      A                      A                      A
 Frequencies --   3147.0033              3168.7360              3172.4679
 Red. masses --      1.1023                 1.1045                 1.1086
 Frc consts  --      6.4317                 6.5341                 6.5740
 IR Inten    --      1.2341                 6.5150                11.7586

 - Thermochemistry -
 -------------------
 Temperature   298.150 Kelvin.  Pressure   1.00000 Atm.
 Atom     1 has atomic number  6 and mass  12.00000

 Molecular mass:   142.03967 amu.
 Principal axes and moments of inertia in atomic units:
                           1         2         3
     Eigenvalues --   906.095631573.853401952.65013
           X            0.99824   0.05771   0.01328
           Y           -0.05731   0.99793  -0.02903
           Z           -0.01493   0.02822   0.99949
 This molecule is an asymmetric top.
 Rotational symmetry number  1.
 Warning -- assumption of classical behavior for rotation
           may cause significant error
 Rotational temperatures (Kelvin)      0.09559     0.05503     0.04436
 Rotational constants (GHZ):           1.99178     1.14670     0.92425
    1 imaginary frequencies ignored.
 Zero-point vibrational energy     399091.0 (Joules/Mol)
                                   95.38505 (Kcal/Mol)
 Warning -- explicit consideration of  15 degrees of freedom as
           vibrations may cause significant error
 Vibrational temperatures:     85.58   150.75   177.47   208.93   257.62
          (Kelvin)            277.05   343.77   389.16   414.64   443.44
                              457.60   505.96   579.33   751.31   834.32
                              899.73   918.78  1394.95  1471.42  1513.54
                             1543.83  1597.61  1629.22  1685.50  1697.82
                             1725.70  1742.71  1988.05  2048.98  2112.75
                             2129.51  2157.38  2162.23  2176.72  2186.23
                             2190.40  2205.05  2225.67  2269.20  2700.87
                             3350.61  4376.73  4410.51  4419.46  4490.16
                             4522.13  4527.33  4527.83  4559.10  4564.47

 Zero-point correction=                           0.152006 (Hartree/Particle)
 Thermal correction to Energy=                    0.162735
 Thermal correction to Enthalpy=                  0.163679
 Thermal correction to Gibbs Free Energy=         0.115840
 Sum of electronic and zero-point Energies=           -844.689316
 Sum of electronic and thermal Energies=              -844.678586
 Sum of electronic and thermal Enthalpies=            -844.677642
 Sum of electronic and thermal Free Energies=         -844.725481

                     E (Thermal)             CV                S
                      KCal/Mol        Cal/Mol-Kelvin    Cal/Mol-Kelvin
 Total                  102.118             36.887            100.687
 Electronic               0.000              0.000              0.000
 Translational            0.889              2.981             40.764
 Rotational               0.889              2.981             29.411
 Vibrational            100.340             30.925             30.511
 Vibration     1          0.597              1.974              4.474
 Vibration     2          0.605              1.945              3.363
 Vibration     3          0.610              1.930              3.047
 Vibration     4          0.617              1.908              2.734
 Vibration     5          0.629              1.868              2.338
 Vibration     6          0.635              1.850              2.203
 Vibration     7          0.657              1.781              1.811
 Vibration     8          0.674              1.728              1.593
 Vibration     9          0.685              1.696              1.485
 Vibration    10          0.698              1.658              1.372
 Vibration    11          0.704              1.639              1.320
 Vibration    12          0.728              1.572              1.159
 Vibration    13          0.768              1.464              0.953
 Vibration    14          0.877              1.201              0.605
 Vibration    15          0.937              1.075              0.486

 Optimization completed.
    -- Stationary point found.
 Normal termination of Gaussian 09 at Mon Feb 23 12:46:45 2015.
