 Gaussian 09, Revision D.01,
 Gaussian 09:  EM64L-G09RevD.01 24-Apr-2013

 ----------------------------------------------------------------------
 # opt=(calcfc,ts,noeigentest) freq=noraman b3lyp/genecp geom=connectiv
 ity gfinput pseudo=read
 ----------------------------------------------------------------------

 -----------------------------------------------
 gen calculation ts624F-C H O=aug-ccpvtz/F=midix
 -----------------------------------------------
 Symbolic Z-matrix:
 Charge =  0 Multiplicity = 1

 SCF Done:  E(RB3LYP) =  -484.145055461     A.U. after   13 cycles
 SCF Done:  E(RB3LYP) =  -484.159020202     A.U. after   13 cycles
 SCF Done:  E(RB3LYP) =  -484.163071607     A.U. after   13 cycles
 SCF Done:  E(RB3LYP) =  -484.163327987     A.U. after   14 cycles
 SCF Done:  E(RB3LYP) =  -484.162971811     A.U. after   14 cycles
 SCF Done:  E(RB3LYP) =  -484.163436283     A.U. after   11 cycles
 SCF Done:  E(RB3LYP) =  -484.163544871     A.U. after   11 cycles
 SCF Done:  E(RB3LYP) =  -484.163614299     A.U. after   11 cycles
 SCF Done:  E(RB3LYP) =  -484.163617813     A.U. after    9 cycles
 SCF Done:  E(RB3LYP) =  -484.163618160     A.U. after    8 cycles
 SCF Done:  E(RB3LYP) =  -484.163617999     A.U. after    7 cycles
 SCF Done:  E(RB3LYP) =  -484.163618134     A.U. after    8 cycles
 SCF Done:  E(RB3LYP) =  -484.163618129     A.U. after    8 cycles
 SCF Done:  E(RB3LYP) =  -484.163618145     A.U. after    8 cycles
 Optimization completed.
    -- Stationary point found.

 1\1\GINC-CNODE-5-52\FTS\RB3LYP\GenECP\C4H11F1O3\MLAWAL\26-Mar-2015\0\\
 # opt=(calcfc,ts,noeigentest) freq=noraman b3lyp/genecp geom=connectiv
 ity gfinput pseudo=read\\gen calculation ts624F-C H O=aug-ccpvtz/F=mid
 ix\\0,1\C,1.0052480995,-0.4381654422,0.1847299747\O,0.2184729763,-0.85
 94953418,1.0850846502\O,0.2180361382,0.7692521516,-0.681886782\O,-1.72
 67527886,-0.567475143,-0.290921255\C,-2.9203410464,-0.0249449128,0.283
 8442972\H,-2.6927815541,0.6491829778,1.1117196409\H,-3.4654886582,0.51
 47445232,-0.4880722266\H,-3.5377557888,-0.8442254551,0.6473979584\H,-0

 Normal termination of Gaussian 09 at Thu Mar 26 22:58:21 2015.

 ------------------------------------------------------------------
 #N Geom=AllCheck Guess=TCheck SCRF=Check GenChk RB3LYP/GenECP Freq
 ------------------------------------------------------------------

 Structure from the checkpoint file:  "/lustre/SCRATCH5/gau/mlawal/850378.sched01/Gau-16109.chk"
 -----------------------------------------------
 gen calculation ts624F-C H O=aug-ccpvtz/F=midix
 -----------------------------------------------
 Charge =  0 Multiplicity = 1

                         Standard orientation:
 ---------------------------------------------------------------------
 Center     Atomic      Atomic             Coordinates (Angstroms)
 Number     Number       Type             X           Y           Z
 ---------------------------------------------------------------------
      1          6           0        1.007726   -0.420325    0.143096
      2          8           0        0.235900   -0.861605    1.046826
      3          8           0        0.189311    0.772943   -0.714165
      4          8           0       -1.723837   -0.606598   -0.315883
      5          6           0       -2.925115   -0.091841    0.268328
      6          1           0       -2.706818    0.584111    1.097210
      7          1           0       -3.486602    0.438722   -0.498184
      8          1           0       -3.522495   -0.925459    0.632760
      9          1           0       -0.935963    0.184238   -0.666837
     10          1           0       -0.979032   -0.937834    0.430665
     11          6           0        2.357442    0.134695    0.506626
     12          1           0        2.966203   -0.701365    0.848189
     13          1           0        2.838640    0.592812   -0.353959
     14          1           0        2.271636    0.850149    1.320138
     15          6           0        0.108451    2.029195   -0.045230
     16          1           0        1.058585    2.556293   -0.124909
     17          1           0       -0.660068    2.627236   -0.534912
     18          1           0       -0.150390    1.905023    1.009872
     19          9           0        1.156032   -1.280243   -0.947909
 ---------------------------------------------------------------------

 SCF Done:  E(RB3LYP) =  -484.163618145     A.U. after    1 cycles

 The electronic state is 1-A.
 Alpha  occ. eigenvalues --  -24.56796 -19.16802 -19.15835 -19.10154 -10.34391
 Alpha  occ. eigenvalues --  -10.24048 -10.23232 -10.17668  -1.21343  -1.07684
 Alpha  occ. eigenvalues --   -1.03030  -1.00772  -0.75611  -0.72249  -0.69809
 Alpha  occ. eigenvalues --   -0.59344  -0.55425  -0.55051  -0.52248  -0.48755
 Alpha  occ. eigenvalues --   -0.47524  -0.46668  -0.45931  -0.45450  -0.41941
 Alpha  occ. eigenvalues --   -0.41271  -0.40486  -0.38916  -0.37517  -0.36205
 Alpha  occ. eigenvalues --   -0.34485  -0.30178  -0.29154  -0.28057
 Alpha virt. eigenvalues --   -0.01922  -0.00365   0.00545   0.00798   0.02056
 Alpha virt. eigenvalues --    0.02207   0.02769   0.03354   0.04366   0.04879
 Alpha virt. eigenvalues --    0.05237   0.05570   0.06167   0.06474   0.06578

 Mulliken charges:
               1
     1  C    1.387581
     2  O   -0.917947
     3  O   -0.288713
     4  O   -0.268492
     5  C   -0.588610
     6  H    0.294491
     7  H    0.275115
     8  H    0.230887
     9  H    0.186636
    10  H    0.149564
    11  C   -1.068140
    12  H    0.171247
    13  H    0.270769
    14  H    0.192537
    15  C   -0.573793
    16  H    0.214363
    17  H    0.211425
    18  H    0.294340
    19  F   -0.173261
 Sum of Mulliken charges =   0.00000

 Dipole moment (field-independent basis, Debye):
    X=             -1.7249    Y=              3.4327    Z=              0.9393  Tot=              3.9549
 Quadrupole moment (field-independent basis, Debye-Ang):
   XX=            -39.7242   YY=            -49.6729   ZZ=            -54.4707
   XY=              0.8785   XZ=              0.2956   YZ=             -0.1674

  Exact polarizability:  87.105  -0.066  73.450   0.939  -1.911  63.558
 Approx polarizability: 103.634  -0.550 100.035  -0.308  -3.462  96.196

 ******    1 imaginary frequencies (negative Signs) ******

                      1                      2                      3
                      A                      A                      A
 Frequencies --  -1208.9244                67.8485                89.2168
 Red. masses --      1.1967                 3.5636                 1.0811
 Frc consts  --      1.0305                 0.0097                 0.0051
 IR Inten    --    309.5256                 3.6287                 0.1976

                      4                      5                      6
                      A                      A                      A
 Frequencies --    109.6390               153.0753               185.3674
 Red. masses --      2.6518                 3.6129                 1.0511
 Frc consts  --      0.0188                 0.0499                 0.0213
 IR Inten    --      0.6281                 4.8526                 0.0671

                      7                      8                      9
                      A                      A                      A
 Frequencies --    197.7247               225.6477               248.7228
 Red. masses --      3.2599                 1.5463                 1.5853
 Frc consts  --      0.0751                 0.0464                 0.0578
 IR Inten    --      2.2520                 1.9579                 5.6417

                     10                     11                     12
                      A                      A                      A
 Frequencies --    311.3502               337.6114               363.3045
 Red. masses --      4.1778                 3.5927                 6.0062
 Frc consts  --      0.2386                 0.2413                 0.4671
 IR Inten    --      6.9659                 9.7519                93.6205

                     13                     14                     15
                      A                      A                      A
 Frequencies --    476.8433               506.0124               564.0058
 Red. masses --      4.5013                 5.2840                 5.3030
 Frc consts  --      0.6030                 0.7971                 0.9939
 IR Inten    --     29.9361               132.0873                 2.9708

                     16                     17                     18
                      A                      A                      A
 Frequencies --    638.0093               647.2399               791.4058
 Red. masses --      5.8723                 3.9915                 4.8783
 Frc consts  --      1.4083                 0.9852                 1.8002
 IR Inten    --    244.3758               275.5593               152.1456

                     19                     20                     21
                      A                      A                      A
 Frequencies --    986.7700              1031.4405              1069.6758
 Red. masses --      2.8873                 2.4987                 3.5720
 Frc consts  --      1.6564                 1.5662                 2.4080
 IR Inten    --    209.6514               282.8389               112.9554

                     22                     23                     24
                      A                      A                      A
 Frequencies --   1078.0216              1134.5091              1154.1722
 Red. masses --      1.6736                 1.4871                 1.7060
 Frc consts  --      1.1459                 1.1277                 1.3390
 IR Inten    --    350.6249               229.2784                30.1611

                     25                     26                     27
                      A                      A                      A
 Frequencies --   1176.7832              1183.0117              1205.3242
 Red. masses --      1.3623                 1.2943                 1.6865
 Frc consts  --      1.1115                 1.0673                 1.4435
 IR Inten    --    105.1724                12.0595               107.3708

                     28                     29                     30
                      A                      A                      A
 Frequencies --   1217.1794              1314.0307              1404.9161
 Red. masses --      1.2816                 1.3504                 1.2821
 Frc consts  --      1.1187                 1.3738                 1.4910
 IR Inten    --    439.9211              1613.6407               100.9596

                     31                     32                     33
                      A                      A                      A
 Frequencies --   1466.5855              1470.3299              1477.3573
 Red. masses --      1.1378                 1.1320                 1.0953
 Frc consts  --      1.4419                 1.4418                 1.4085
 IR Inten    --     27.2594                25.4581                46.2849

                     34                     35                     36
                      A                      A                      A
 Frequencies --   1483.3967              1495.9535              1501.6904
 Red. masses --      1.0552                 1.0521                 1.0545
 Frc consts  --      1.3681                 1.3872                 1.4011
 IR Inten    --      7.2809                 3.0870                12.8338

                     37                     38                     39
                      A                      A                      A
 Frequencies --   1505.2766              1513.6378              1536.0736
 Red. masses --      1.0506                 1.0674                 1.5991
 Frc consts  --      1.4026                 1.4408                 2.2230
 IR Inten    --     12.5473                20.2447               527.0018

                     40                     41                     42
                      A                      A                      A
 Frequencies --   1574.3014              1764.5272              2094.2693
 Red. masses --      1.3425                 1.2276                 1.0344
 Frc consts  --      1.9604                 2.2520                 2.6731
 IR Inten    --    510.9811               442.2962               805.5347

                     43                     44                     45
                      A                      A                      A
 Frequencies --   3012.0184              3030.2632              3060.6748
 Red. masses --      1.0349                 1.0338                 1.0349
 Frc consts  --      5.5317                 5.5929                 5.7120
 IR Inten    --     32.4988                29.7915                 3.1927

                     46                     47                     48
                      A                      A                      A
 Frequencies --   3079.7273              3097.7537              3098.9162
 Red. masses --      1.0985                 1.1032                 1.1034
 Frc consts  --      6.1386                 6.2375                 6.2429
 IR Inten    --     23.4530                45.7699                 4.6241

                     49                     50                     51
                      A                      A                      A
 Frequencies --   3119.5392              3127.5134              3145.1798
 Red. masses --      1.1071                 1.1010                 1.1044
 Frc consts  --      6.3476                 6.3449                 6.4366
 IR Inten    --     16.3659                 8.3776                 9.3873

 - Thermochemistry -
 -------------------
 Temperature   298.150 Kelvin.  Pressure   1.00000 Atm.
 Atom     1 has atomic number  6 and mass  12.00000

 Molecular mass:   126.06922 amu.
 Principal axes and moments of inertia in atomic units:
                           1         2         3
     Eigenvalues --   662.796841316.478781587.59301
           X            0.99969   0.02354   0.00851
           Y           -0.02342   0.99962  -0.01423
           Z           -0.00884   0.01403   0.99986
 This molecule is an asymmetric top.
 Rotational symmetry number  1.
 Warning -- assumption of classical behavior for rotation
           may cause significant error
 Rotational temperatures (Kelvin)      0.13068     0.06579     0.05456
 Rotational constants (GHZ):           2.72292     1.37089     1.13678
    1 imaginary frequencies ignored.
 Zero-point vibrational energy     397900.9 (Joules/Mol)
                                   95.10061 (Kcal/Mol)
 Warning -- explicit consideration of  14 degrees of freedom as
           vibrations may cause significant error
 Vibrational temperatures:     97.62   128.36   157.75   220.24   266.70
          (Kelvin)            284.48   324.66   357.86   447.96   485.75
                              522.71   686.07   728.04   811.48   917.95
                              931.23  1138.65  1419.74  1484.01  1539.02
                             1551.03  1632.30  1660.59  1693.13  1702.09
                             1734.19  1751.25  1890.59  2021.36  2110.09
                             2115.47  2125.59  2134.27  2152.34  2160.59
                             2165.75  2177.78  2210.06  2265.07  2538.76
                             3013.18  4333.62  4359.87  4403.62  4431.04
                             4456.97  4458.64  4488.32  4499.79  4525.21

 Zero-point correction=                           0.151552 (Hartree/Particle)
 Thermal correction to Energy=                    0.161884
 Thermal correction to Enthalpy=                  0.162829
 Thermal correction to Gibbs Free Energy=         0.116119
 Sum of electronic and zero-point Energies=           -484.012066
 Sum of electronic and thermal Energies=              -484.001734
 Sum of electronic and thermal Enthalpies=            -484.000790
 Sum of electronic and thermal Free Energies=         -484.047499

                     E (Thermal)             CV                S
                      KCal/Mol        Cal/Mol-Kelvin    Cal/Mol-Kelvin
 Total                  101.584             35.690             98.309
 Electronic               0.000              0.000              0.000
 Translational            0.889              2.981             40.409
 Rotational               0.889              2.981             28.717
 Vibrational             99.807             29.729             29.183
 Vibration     1          0.598              1.970              4.215
 Vibration     2          0.602              1.957              3.677
 Vibration     3          0.606              1.941              3.275
 Vibration     4          0.619              1.899              2.634
 Vibration     5          0.631              1.860              2.274
 Vibration     6          0.637              1.843              2.154
 Vibration     7          0.650              1.802              1.913
 Vibration     8          0.662              1.765              1.740
 Vibration     9          0.700              1.652              1.355
 Vibration    10          0.718              1.600              1.223
 Vibration    11          0.737              1.548              1.108
 Vibration    12          0.833              1.301              0.719
 Vibration    13          0.861              1.237              0.643
 Vibration    14          0.920              1.109              0.516

 Optimization completed.
    -- Stationary point found.
 Normal termination of Gaussian 09 at Fri Mar 27 06:43:49 2015.
