 Gaussian 09, Revision D.01,
 Gaussian 09:  EM64L-G09RevD.01 24-Apr-2013

 ----------------------------------------------------------------------
 # opt=(calcfc,ts,noeigentest) freq=noraman b3lyp/aug-cc-pvtz geom=conn
 ectivity
 ----------------------------------------------------------------------

 ------------
 ts624-ccpvtz
 ------------
 Symbolic Z-matrix:
 Charge =  0 Multiplicity = 1

 SCF Done:  E(RB3LYP) =  -484.708360833     A.U. after   12 cycles
 SCF Done:  E(RB3LYP) =  -484.722212024     A.U. after   10 cycles
 SCF Done:  E(RB3LYP) =  -484.726189228     A.U. after   10 cycles
 SCF Done:  E(RB3LYP) =  -484.726555528     A.U. after   10 cycles
 SCF Done:  E(RB3LYP) =  -484.726025457     A.U. after   10 cycles
 SCF Done:  E(RB3LYP) =  -484.725231750     A.U. after   10 cycles
 SCF Done:  E(RB3LYP) =  -484.726526897     A.U. after   10 cycles
 SCF Done:  E(RB3LYP) =  -484.726694642     A.U. after    9 cycles
 SCF Done:  E(RB3LYP) =  -484.726764732     A.U. after    9 cycles
 SCF Done:  E(RB3LYP) =  -484.726767032     A.U. after    8 cycles
 SCF Done:  E(RB3LYP) =  -484.726574976     A.U. after   10 cycles
 SCF Done:  E(RB3LYP) =  -484.726758919     A.U. after    9 cycles
 SCF Done:  E(RB3LYP) =  -484.726766812     A.U. after    8 cycles
 SCF Done:  E(RB3LYP) =  -484.726767813     A.U. after    7 cycles
 SCF Done:  E(RB3LYP) =  -484.726767819     A.U. after    6 cycles
 SCF Done:  E(RB3LYP) =  -484.726479019     A.U. after   10 cycles
 SCF Done:  E(RB3LYP) =  -484.726740892     A.U. after    9 cycles
 SCF Done:  E(RB3LYP) =  -484.726766576     A.U. after    8 cycles
 SCF Done:  E(RB3LYP) =  -484.726767826     A.U. after    7 cycles
 Optimization completed.
    -- Stationary point found.
 Normal termination of Gaussian 09 at Fri Jul 31 12:10:17 2015.

 ----------------------------------------------------------------------
 #N Geom=AllCheck Guess=TCheck SCRF=Check GenChk RB3LYP/Aug-CC-pVTZ Fre
 q
 ----------------------------------------------------------------------

 Structure from the checkpoint file:  "/lustre/SCRATCH5/gau/mlawal/954764.sched01/Gau-8049.chk"
 ------------
 ts624-ccpvtz
 ------------
 Charge =  0 Multiplicity = 1

                         Standard orientation:
 ---------------------------------------------------------------------
 Center     Atomic      Atomic             Coordinates (Angstroms)
 Number     Number       Type             X           Y           Z
 ---------------------------------------------------------------------
      1          6           0        1.012332   -0.428200    0.136935
      2          8           0        0.229204   -0.907108    1.012882
      3          8           0        0.182993    0.771427   -0.709949
      4          8           0       -1.736417   -0.602310   -0.324434
      5          6           0       -2.930886   -0.096269    0.280284
      6          1           0       -3.529233   -0.935503    0.630217
      7          1           0       -2.704394    0.559806    1.123117
      8          1           0       -3.496323    0.454173   -0.469295
      9          1           0       -0.944141    0.190779   -0.663690
     10          1           0       -0.981997   -0.956642    0.408144
     11          6           0        2.338110    0.152601    0.552731
     12          1           0        2.950101   -0.672298    0.915539
     13          1           0        2.842225    0.623405   -0.287689
     14          1           0        2.208175    0.862844    1.365142
     15          6           0        0.103927    2.032203   -0.049168
     16          1           0        1.055777    2.556248   -0.127363
     17          1           0       -0.660385    2.629113   -0.547084
     18          1           0       -0.161322    1.918063    1.005670
     19          9           0        1.208264   -1.254231   -0.967267
 ---------------------------------------------------------------------

 SCF Done:  E(RB3LYP) =  -484.726767827     A.U. after    1 cycles

 The electronic state is 1-A.
 Alpha  occ. eigenvalues --  -24.66517 -19.16645 -19.15803 -19.10198 -10.34475
 Alpha  occ. eigenvalues --  -10.23981 -10.23283 -10.17733  -1.20337  -1.07516
 Alpha  occ. eigenvalues --   -1.02868  -1.00768  -0.75577  -0.72170  -0.69803
 Alpha  occ. eigenvalues --   -0.59309  -0.55376  -0.55011  -0.52201  -0.48777
 Alpha  occ. eigenvalues --   -0.47539  -0.46614  -0.45901  -0.45467  -0.41939
 Alpha  occ. eigenvalues --   -0.41340  -0.40517  -0.39025  -0.37522  -0.36237
 Alpha  occ. eigenvalues --   -0.34390  -0.30150  -0.29150  -0.28078
 Alpha virt. eigenvalues --   -0.01935  -0.00375   0.00534   0.00787   0.02025
 Alpha virt. eigenvalues --    0.02184   0.02779   0.03347   0.04320   0.04848
 Alpha virt. eigenvalues --    0.05209   0.05482   0.06143   0.06326   0.06539

 Mulliken charges:
               1
     1  C    1.721945
     2  O   -0.887717
     3  O   -0.347570
     4  O   -0.302252
     5  C   -0.595856
     6  H    0.232929
     7  H    0.289403
     8  H    0.273804
     9  H    0.216804
    10  H    0.161677
    11  C   -0.895361
    12  H    0.189482
    13  H    0.186160
    14  H    0.192599
    15  C   -0.611637
    16  H    0.216483
    17  H    0.193596
    18  H    0.297234
    19  F   -0.531721
 Sum of Mulliken charges =   0.00000

 Dipole moment (field-independent basis, Debye):
    X=             -1.6955    Y=              3.4721    Z=              1.0508  Tot=              4.0043
 Quadrupole moment (field-independent basis, Debye-Ang):
   XX=            -39.9083   YY=            -49.6349   ZZ=            -54.3126
   XY=              0.9523   XZ=              0.4156   YZ=             -0.1899

  Exact polarizability:  87.346  -0.151  73.941   0.933  -1.743  63.895
 Approx polarizability: 104.104  -0.656 100.567  -0.363  -3.511  96.201

 ******    1 imaginary frequencies (negative Signs) ******

                      1                      2                      3
                      A                      A                      A
 Frequencies --  -1227.7563                62.0903                90.6122
 Red. masses --      1.1905                 3.7502                 1.0708
 Frc consts  --      1.0573                 0.0085                 0.0052
 IR Inten    --    285.5584                 3.2061                 0.0987

                      4                      5                      6
                      A                      A                      A
 Frequencies --    107.8171               152.8331               184.8818
 Red. masses --      2.5955                 3.6514                 1.0544
 Frc consts  --      0.0178                 0.0503                 0.0212
 IR Inten    --      0.5664                 5.5882                 0.0728

                      7                      8                      9
                      A                      A                      A
 Frequencies --    197.9812               224.9903               252.3342
 Red. masses --      3.3822                 1.4303                 1.6736
 Frc consts  --      0.0781                 0.0427                 0.0628
 IR Inten    --      2.1225                 2.1375                 6.7764

                     10                     11                     12
                      A                      A                      A
 Frequencies --    310.5278               336.9875               365.7343
 Red. masses --      4.1730                 3.6008                 6.0971
 Frc consts  --      0.2371                 0.2409                 0.4805
 IR Inten    --      7.0838                 9.9521                93.0462

                     13                     14                     15
                      A                      A                      A
 Frequencies --    477.9715               509.1226               564.9451
 Red. masses --      4.5454                 5.2679                 5.3699
 Frc consts  --      0.6118                 0.8045                 1.0098
 IR Inten    --     26.6723               124.0812                 2.1487

                     16                     17                     18
                      A                      A                      A
 Frequencies --    635.3460               648.2542               798.1437
 Red. masses --      5.2631                 4.4372                 4.8982
 Frc consts  --      1.2517                 1.0986                 1.8384
 IR Inten    --    177.1861               333.5766               177.1821

                     19                     20                     21
                      A                      A                      A
 Frequencies --    985.9440              1031.4097              1071.0266
 Red. masses --      2.8427                 2.5303                 3.8456
 Frc consts  --      1.6281                 1.5859                 2.5990
 IR Inten    --    234.2094               285.6530               104.4263

                     22                     23                     24
                      A                      A                      A
 Frequencies --   1076.7578              1135.7826              1154.6572
 Red. masses --      1.6359                 1.4681                 1.6868
 Frc consts  --      1.1175                 1.1158                 1.3250
 IR Inten    --    387.8866               239.6506                41.2540

                     25                     26                     27
                      A                      A                      A
 Frequencies --   1176.7303              1182.7171              1205.1396
 Red. masses --      1.3711                 1.2967                 1.6898
 Frc consts  --      1.1186                 1.0687                 1.4460
 IR Inten    --    103.6953                23.4100               136.5485

                     28                     29                     30
                      A                      A                      A
 Frequencies --   1217.7473              1302.8455              1405.5749
 Red. masses --      1.2759                 1.3422                 1.2767
 Frc consts  --      1.1148                 1.3423                 1.4862
 IR Inten    --    426.1582              1721.1959                94.4200

                     31                     32                     33
                      A                      A                      A
 Frequencies --   1464.5004              1470.6118              1478.3866
 Red. masses --      1.1276                 1.1376                 1.1019
 Frc consts  --      1.4249                 1.4495                 1.4190
 IR Inten    --     40.1336                17.9077                44.0283

                     34                     35                     36
                      A                      A                      A
 Frequencies --   1482.4107              1496.1679              1501.3186
 Red. masses --      1.0575                 1.0525                 1.0541
 Frc consts  --      1.3692                 1.3882                 1.3998
 IR Inten    --      7.1658                 3.3029                12.5546

                     37                     38                     39
                      A                      A                      A
 Frequencies --   1505.2753              1513.4572              1534.4565
 Red. masses --      1.0510                 1.0661                 1.5895
 Frc consts  --      1.4031                 1.4388                 2.2051
 IR Inten    --     11.3852                20.7445               529.1760

                     40                     41                     42
                      A                      A                      A
 Frequencies --   1571.0311              1760.3812              2080.2762
 Red. masses --      1.3726                 1.2212                 1.0323
 Frc consts  --      1.9959                 2.2297                 2.6322
 IR Inten    --    518.5638               411.8339               740.3210

                     43                     44                     45
                      A                      A                      A
 Frequencies --   3010.2325              3028.3172              3058.8500
 Red. masses --      1.0357                 1.0342                 1.0347
 Frc consts  --      5.5294                 5.5878                 5.7041
 IR Inten    --     32.6140                30.6574                 3.1884

                     46                     47                     48
                      A                      A                      A
 Frequencies --   3078.2470              3096.5113              3098.7570
 Red. masses --      1.0977                 1.1005                 1.1054
 Frc consts  --      6.1282                 6.2170                 6.2540
 IR Inten    --     24.2032                34.2438                16.3385

                     49                     50                     51
                      A                      A                      A
 Frequencies --   3118.1343              3126.7444              3144.2505
 Red. masses --      1.1070                 1.1010                 1.1047
 Frc consts  --      6.3415                 6.3418                 6.4346
 IR Inten    --     16.8216                 8.4358                 9.5103

 - Thermochemistry -
 -------------------
 Temperature   298.150 Kelvin.  Pressure   1.00000 Atm.
 Atom     1 has atomic number  6 and mass  12.00000

 Molecular mass:   126.06922 amu.
 Principal axes and moments of inertia in atomic units:
                           1         2         3
     Eigenvalues --   665.425141325.584271596.35989
           X            0.99965   0.02448   0.00962
           Y           -0.02435   0.99961  -0.01356
           Z           -0.00995   0.01332   0.99986
 This molecule is an asymmetric top.
 Rotational symmetry number  1.
 Warning -- assumption of classical behavior for rotation
           may cause significant error
 Rotational temperatures (Kelvin)      0.13016     0.06534     0.05426
 Rotational constants (GHZ):           2.71216     1.36147     1.13054
    1 imaginary frequencies ignored.
 Zero-point vibrational energy     397669.9 (Joules/Mol)
                                   95.04540 (Kcal/Mol)
 Warning -- explicit consideration of  14 degrees of freedom as
           vibrations may cause significant error
 Vibrational temperatures:     89.33   130.37   155.12   219.89   266.00
          (Kelvin)            284.85   323.71   363.05   446.78   484.85
                              526.21   687.69   732.51   812.83   914.12
                              932.69  1148.35  1418.55  1483.97  1540.97
                             1549.21  1634.14  1661.29  1693.05  1701.66
                             1733.92  1752.06  1874.50  2022.31  2107.09
                             2115.88  2127.07  2132.86  2152.65  2160.06
                             2165.75  2177.52  2207.74  2260.36  2532.79
                             2993.05  4331.05  4357.07  4401.00  4428.91
                             4455.18  4458.41  4486.29  4498.68  4523.87

 Zero-point correction=                           0.151464 (Hartree/Particle)
 Thermal correction to Energy=                    0.161800
 Thermal correction to Enthalpy=                  0.162745
 Thermal correction to Gibbs Free Energy=         0.115958
 Sum of electronic and zero-point Energies=           -484.575303
 Sum of electronic and thermal Energies=              -484.564967
 Sum of electronic and thermal Enthalpies=            -484.564023
 Sum of electronic and thermal Free Energies=         -484.610810

                     E (Thermal)             CV                S
                      KCal/Mol        Cal/Mol-Kelvin    Cal/Mol-Kelvin
 Total                  101.531             35.675             98.470
 Electronic               0.000              0.000              0.000
 Translational            0.889              2.981             40.409
 Rotational               0.889              2.981             28.734
 Vibrational             99.754             29.713             29.328
 Vibration     1          0.597              1.972              4.390
 Vibration     2          0.602              1.956              3.647
 Vibration     3          0.606              1.943              3.308
 Vibration     4          0.619              1.900              2.637
 Vibration     5          0.631              1.860              2.279
 Vibration     6          0.637              1.843              2.152
 Vibration     7          0.650              1.803              1.919
 Vibration     8          0.664              1.759              1.714
 Vibration     9          0.699              1.654              1.360
 Vibration    10          0.718              1.602              1.226
 Vibration    11          0.739              1.543              1.098
 Vibration    12          0.834              1.299              0.716
 Vibration    13          0.864              1.230              0.636
 Vibration    14          0.921              1.107              0.514

 Optimization completed.
    -- Stationary point found.
 Normal termination of Gaussian 09 at Fri Jul 31 15:54:32 2015.
