 Gaussian 09, Revision D.01,
 Gaussian 09:  EM64L-G09RevD.01 24-Apr-2013

 ----------------------------------------------------------------------
 # opt=(calcfc,ts,noeigentest) freq=noraman b3lyp/gen pseudo=read gfinp
 ut geom=connectivity
 ----------------------------------------------------------------------

 ------------------------
 gen calculation ts624F-C H O=6-31+g(d)/F=LANL2DZ
 ------------------------
 Symbolic Z-matrix:
 Charge =  0 Multiplicity = 1

 SCF Done:  E(RB3LYP) =  -484.531383395     A.U. after   13 cycles
 SCF Done:  E(RB3LYP) =  -484.544646122     A.U. after   12 cycles
 SCF Done:  E(RB3LYP) =  -484.547813007     A.U. after   12 cycles
 SCF Done:  E(RB3LYP) =  -484.548078201     A.U. after   11 cycles
 SCF Done:  E(RB3LYP) =  -484.547961044     A.U. after   11 cycles
 SCF Done:  E(RB3LYP) =  -484.548154952     A.U. after   11 cycles
 SCF Done:  E(RB3LYP) =  -484.548155676     A.U. after    9 cycles
 SCF Done:  E(RB3LYP) =  -484.548159203     A.U. after    8 cycles
 SCF Done:  E(RB3LYP) =  -484.548159313     A.U. after    7 cycles
 Optimization completed.
    -- Stationary point found.
 Normal termination of Gaussian 09 at Thu Feb 19 12:43:51 2015.

 ------------------------------------------------------------------
 #N Geom=AllCheck Guess=TCheck SCRF=Check GenChk RB3LYP/ChkBas Freq
 ------------------------------------------------------------------

 Structure from the checkpoint file:  "/lustre/SCRATCH5/gau/Gau-9305.chk"
 ------------------------
 gen calculation ts624F-C H O=6-31+g(d)/F=LANL2DZ
 ------------------------
 Charge =  0 Multiplicity = 1

                         Standard orientation:
 ---------------------------------------------------------------------
 Center     Atomic      Atomic             Coordinates (Angstroms)
 Number     Number       Type             X           Y           Z
 ---------------------------------------------------------------------
      1          6           0        1.007584   -0.409181    0.147456
      2          8           0        0.239471   -0.867715    1.054451
      3          8           0        0.193260    0.752886   -0.709239
      4          8           0       -1.744861   -0.610659   -0.317175
      5          6           0       -2.941126   -0.074368    0.273287
      6          1           0       -2.704535    0.625791    1.083129
      7          1           0       -3.507740    0.434809   -0.509872
      8          1           0       -3.532156   -0.905096    0.666489
      9          1           0       -0.952790    0.169958   -0.680151
     10          1           0       -1.022726   -0.964916    0.422919
     11          6           0        2.362379    0.152239    0.516475
     12          1           0        2.972514   -0.680172    0.880352
     13          1           0        2.855440    0.600535   -0.349705
     14          1           0        2.269366    0.883884    1.322723
     15          6           0        0.114937    2.026856   -0.061451
     16          1           0        1.074967    2.544439   -0.146738
     17          1           0       -0.648544    2.617033   -0.578157
     18          1           0       -0.155428    1.919972    0.997546
     19          9           0        1.176226   -1.290624   -0.954160
 ---------------------------------------------------------------------

 SCF Done:  E(RB3LYP) =  -484.548159313     A.U. after    1 cycles

 The electronic state is 1-A.
 Alpha  occ. eigenvalues --  -24.66973 -19.19783 -19.18419 -19.12218 -10.35366
 Alpha  occ. eigenvalues --  -10.25643 -10.24584 -10.18497  -1.18930  -1.08319
 Alpha  occ. eigenvalues --   -1.03616  -1.00509  -0.75296  -0.72910  -0.70374
 Alpha  occ. eigenvalues --   -0.58583  -0.55812  -0.55619  -0.51751  -0.48750
 Alpha  occ. eigenvalues --   -0.47449  -0.47059  -0.45765  -0.45541  -0.42137
 Alpha  occ. eigenvalues --   -0.41036  -0.40583  -0.38366  -0.37245  -0.35967
 Alpha  occ. eigenvalues --   -0.34904  -0.30544  -0.28664  -0.27790
 Alpha virt. eigenvalues --   -0.00635   0.01227   0.01644   0.02568   0.03610
 Alpha virt. eigenvalues --    0.04496   0.05216   0.06416   0.07012   0.07728
 Alpha virt. eigenvalues --    0.08209   0.09356   0.09843   0.11241   0.11500

 Mulliken charges:
               1
     1  C    0.420506
     2  O   -0.545928
     3  O   -0.551689
     4  O   -0.775873
     5  C   -0.361050
     6  H    0.200153
     7  H    0.209462
     8  H    0.214040
     9  H    0.594599
    10  H    0.564889
    11  C   -0.701570
    12  H    0.237970
    13  H    0.229469
    14  H    0.219728
    15  C   -0.382154
    16  H    0.210341
    17  H    0.201832
    18  H    0.217113
    19  F   -0.201841
 Sum of Mulliken charges =   0.00000

 Dipole moment (field-independent basis, Debye):
    X=             -2.2888    Y=              3.9925    Z=              1.1343  Tot=              4.7398
 Quadrupole moment (field-independent basis, Debye-Ang):
   XX=            -38.7717   YY=            -49.9875   ZZ=            -55.4069
   XY=              1.2053   XZ=              0.3961   YZ=             -0.5767

  Exact polarizability:  79.443   0.262  67.114   0.842  -2.047  58.515
 Approx polarizability:  91.639  -0.012  88.357  -0.777  -3.239  86.065

 ******    1 imaginary frequencies (negative Signs) ******

                      1                      2                      3
                      A                      A                      A
 Frequencies --  -1136.8791                67.3929               109.6782
 Red. masses --      1.2209                 4.0337                 2.2374
 Frc consts  --      0.9298                 0.0108                 0.0159
 IR Inten    --    398.3379                 4.0581                 0.7613

                      4                      5                      6
                      A                      A                      A
 Frequencies --    114.7982               153.3692               195.7750
 Red. masses --      1.1480                 3.4248                 1.0675
 Frc consts  --      0.0089                 0.0475                 0.0241
 IR Inten    --      0.0701                 6.7255                 0.1368

                      7                      8                      9
                      A                      A                      A
 Frequencies --    203.7146               231.9821               262.3086
 Red. masses --      3.3759                 1.5460                 1.5267
 Frc consts  --      0.0825                 0.0490                 0.0619
 IR Inten    --      3.5992                 2.3056                 7.2091

                     10                     11                     12
                      A                      A                      A
 Frequencies --    313.1358               337.3284               375.8249
 Red. masses --      4.1819                 3.4446                 6.5405
 Frc consts  --      0.2416                 0.2309                 0.5443
 IR Inten    --     10.6490                22.7752                71.2582

                     13                     14                     15
                      A                      A                      A
 Frequencies --    464.6175               507.3891               557.4340
 Red. masses --      4.4915                 5.6821                 5.0720
 Frc consts  --      0.5713                 0.8619                 0.9286
 IR Inten    --     70.7140               114.7718                 5.3853

                     16                     17                     18
                      A                      A                      A
 Frequencies --    622.7729               653.2705               785.1886
 Red. masses --      6.6083                 3.5247                 4.6113
 Frc consts  --      1.5101                 0.8863                 1.6750
 IR Inten    --    308.4960               176.4650               150.0773

                     19                     20                     21
                      A                      A                      A
 Frequencies --    992.6071              1037.4842              1065.8875
 Red. masses --      2.8644                 2.3531                 3.1581
 Frc consts  --      1.6628                 1.4923                 2.1140
 IR Inten    --    173.8433               317.9440               124.4633

                     22                     23                     24
                      A                      A                      A
 Frequencies --   1082.6495              1138.6117              1156.4059
 Red. masses --      1.7127                 1.5066                 1.7891
 Frc consts  --      1.1828                 1.1508                 1.4096
 IR Inten    --    258.9924               165.5957                36.0808

                     25                     26                     27
                      A                      A                      A
 Frequencies --   1178.1125              1185.5887              1211.4517
 Red. masses --      1.3092                 1.3014                 1.5846
 Frc consts  --      1.0706                 1.0778                 1.3702
 IR Inten    --    111.5609                 5.8854               172.6454

                     28                     29                     30
                      A                      A                      A
 Frequencies --   1215.8074              1361.9286              1427.2366
 Red. masses --      1.3627                 1.4297                 1.2709
 Frc consts  --      1.1868                 1.5624                 1.5253
 IR Inten    --    179.9435              1492.8190               130.2362

                     31                     32                     33
                      A                      A                      A
 Frequencies --   1479.8588              1482.5304              1501.3930
 Red. masses --      1.1353                 1.1625                 1.1080
 Frc consts  --      1.4649                 1.5053                 1.4716
 IR Inten    --     67.7075                12.6617                67.6221

                     34                     35                     36
                      A                      A                      A
 Frequencies --   1503.7905              1514.1189              1520.2461
 Red. masses --      1.0503                 1.0566                 1.0518
 Frc consts  --      1.3994                 1.4272                 1.4322
 IR Inten    --      2.3667                10.1208                20.9954

                     37                     38                     39
                      A                      A                      A
 Frequencies --   1523.9504              1534.7966              1552.0223
 Red. masses --      1.0568                 1.0740                 1.5559
 Frc consts  --      1.4460                 1.4906                 2.2081
 IR Inten    --      6.9045                35.0259               631.3760

                     40                     41                     42
                      A                      A                      A
 Frequencies --   1580.2008              1825.8502              2174.6517
 Red. masses --      1.2995                 1.2101                 1.0422
 Frc consts  --      1.9118                 2.3769                 2.9039
 IR Inten    --    448.5672               543.9651              1018.6904

                     43                     44                     45
                      A                      A                      A
 Frequencies --   3036.7992              3057.3135              3078.0117
 Red. masses --      1.0345                 1.0342                 1.0349
 Frc consts  --      5.6208                 5.6955                 5.7767
 IR Inten    --     34.9723                32.2970                 4.9290

                     46                     47                     48
                      A                      A                      A
 Frequencies --   3113.1598              3134.3875              3135.9137
 Red. masses --      1.1000                 1.1058                 1.1020
 Frc consts  --      6.2812                 6.4007                 6.3850
 IR Inten    --     25.3289                39.4034                11.5862

                     49                     50                     51
                      A                      A                      A
 Frequencies --   3150.1798              3161.4174              3163.5120
 Red. masses --      1.1018                 1.1083                 1.1051
 Frc consts  --      6.4418                 6.5261                 6.5159
 IR Inten    --      9.2506                15.5719                11.9233

 - Thermochemistry -
 -------------------
 Temperature   298.150 Kelvin.  Pressure   1.00000 Atm.
 Atom     1 has atomic number  6 and mass  12.00000

 Molecular mass:   126.06922 amu.
 Principal axes and moments of inertia in atomic units:
                           1         2         3
     Eigenvalues --   665.609511333.269891602.22899
           X            0.99968   0.02393   0.00877
           Y           -0.02379   0.99959  -0.01598
           Z           -0.00915   0.01576   0.99983
 This molecule is an asymmetric top.
 Rotational symmetry number  1.
 Warning -- assumption of classical behavior for rotation
           may cause significant error
 Rotational temperatures (Kelvin)      0.13013     0.06496     0.05406
 Rotational constants (GHZ):           2.71141     1.35362     1.12639
    1 imaginary frequencies ignored.
 Zero-point vibrational energy     402147.8 (Joules/Mol)
                                   96.11562 (Kcal/Mol)
 Warning -- explicit consideration of  14 degrees of freedom as
           vibrations may cause significant error
 Vibrational temperatures:     96.96   157.80   165.17   220.66   281.68
          (Kelvin)            293.10   333.77   377.40   450.53   485.34
                              540.73   668.48   730.02   802.02   896.03
                              939.91  1129.71  1428.14  1492.71  1533.57
                             1557.69  1638.21  1663.81  1695.04  1705.80
                             1743.01  1749.27  1959.51  2053.47  2129.18
                             2133.03  2160.17  2163.62  2178.48  2187.29
                             2192.62  2208.23  2233.01  2273.55  2626.99
                             3128.83  4369.27  4398.79  4428.57  4479.14
                             4509.68  4511.87  4532.40  4548.57  4551.58

 Zero-point correction=                           0.153170 (Hartree/Particle)
 Thermal correction to Energy=                    0.163395
 Thermal correction to Enthalpy=                  0.164339
 Thermal correction to Gibbs Free Energy=         0.117997
 Sum of electronic and zero-point Energies=           -484.394989
 Sum of electronic and thermal Energies=              -484.384765
 Sum of electronic and thermal Enthalpies=            -484.383820
 Sum of electronic and thermal Free Energies=         -484.430162

                     E (Thermal)             CV                S
                      KCal/Mol        Cal/Mol-Kelvin    Cal/Mol-Kelvin
 Total                  102.532             35.550             97.534
 Electronic               0.000              0.000              0.000
 Translational            0.889              2.981             40.409
 Rotational               0.889              2.981             28.743
 Vibrational            100.754             29.589             28.382
 Vibration     1          0.598              1.970              4.228
 Vibration     2          0.606              1.941              3.275
 Vibration     3          0.608              1.937              3.186
 Vibration     4          0.619              1.899              2.630
 Vibration     5          0.636              1.846              2.172
 Vibration     6          0.639              1.835              2.099
 Vibration     7          0.653              1.792              1.864
 Vibration     8          0.670              1.742              1.646
 Vibration     9          0.701              1.649              1.346
 Vibration    10          0.718              1.601              1.225
 Vibration    11          0.747              1.522              1.056
 Vibration    12          0.822              1.329              0.753
 Vibration    13          0.863              1.234              0.640
 Vibration    14          0.913              1.123              0.529

 Optimization completed.
    -- Stationary point found.
 Normal termination of Gaussian 09 at Thu Feb 19 12:45:21 2015.
