 Gaussian 09, Revision D.01,
 Gaussian 09:  EM64L-G09RevD.01 24-Apr-2013

 ----------------------------------------------------------------------
 # opt=(calcfc,ts,noeigentest) freq=noraman b3lyp/genecp geom=connectiv
 ity gfinput pseudo=read
 ----------------------------------------------------------------------

 -------------------------------------------------
 gen calculation ts624F-C H O=aug-ccpvtz/F=lanl2dz
 -------------------------------------------------
 Symbolic Z-matrix:
 Charge =  0 Multiplicity = 1

 SCF Done:  E(RB3LYP) =  -484.694037838     A.U. after   13 cycles
 SCF Done:  E(RB3LYP) =  -484.708545762     A.U. after   11 cycles
 SCF Done:  E(RB3LYP) =  -484.712693078     A.U. after   11 cycles
 SCF Done:  E(RB3LYP) =  -484.712960666     A.U. after   10 cycles
 SCF Done:  E(RB3LYP) =  -484.712459186     A.U. after   11 cycles
 SCF Done:  E(RB3LYP) =  -484.713026764     A.U. after   11 cycles
 SCF Done:  E(RB3LYP) =  -484.713074019     A.U. after   10 cycles
 SCF Done:  E(RB3LYP) =  -484.713202571     A.U. after   10 cycles
 SCF Done:  E(RB3LYP) =  -484.713205931     A.U. after    8 cycles
 SCF Done:  E(RB3LYP) =  -484.713207123     A.U. after    8 cycles
 SCF Done:  E(RB3LYP) =  -484.713207561     A.U. after    8 cycles
 SCF Done:  E(RB3LYP) =  -484.713207712     A.U. after    7 cycles
 SCF Done:  E(RB3LYP) =  -484.713207628     A.U. after    7 cycles
 SCF Done:  E(RB3LYP) =  -484.713207717     A.U. after    6 cycles
 Optimization completed.
    -- Stationary point found.

 1\1\GINC-CNODE-3-32\FTS\RB3LYP\GenECP\C4H11F1O3\MLAWAL\26-Mar-2015\0\\
 # opt=(calcfc,ts,noeigentest) freq=noraman b3lyp/genecp geom=connectiv
 ity gfinput pseudo=read\\gen calculation ts624F-C H O=aug-ccpvtz/F=lan
 l2dz\\0,1\C,1.0071040288,-0.437396166,0.1749650222\O,0.2209144854,-0.8
 930045042,1.0559033652\O,0.216729069,0.7583825935,-0.6799062813\O,-1.7
 39011099,-0.5634877143,-0.2949105159\C,-2.9235526459,-0.0204408459,0.2
 994611133\H,-2.6830298807,0.6442710384,1.1312906846\H,-3.4739111693,0.
 5291967349,-0.46149822\H,-3.540487535,-0.8405818432,0.6616268184\H,-0.

 Normal termination of Gaussian 09 at Thu Mar 26 21:44:31 2015.

 ------------------------------------------------------------------
 #N Geom=AllCheck Guess=TCheck SCRF=Check GenChk RB3LYP/GenECP Freq
 ------------------------------------------------------------------

 Structure from the checkpoint file:  "/lustre/SCRATCH5/gau/mlawal/850368.sched01/Gau-30006.chk"
 -------------------------------------------------
 gen calculation ts624F-C H O=aug-ccpvtz/F=lanl2dz
 -------------------------------------------------
 Charge =  0 Multiplicity = 1

                         Standard orientation:
 ---------------------------------------------------------------------
 Center     Atomic      Atomic             Coordinates (Angstroms)
 Number     Number       Type             X           Y           Z
 ---------------------------------------------------------------------
      1          6           0        1.006448   -0.413944    0.148318
      2          8           0        0.231885   -0.885934    1.030930
      3          8           0        0.187412    0.760812   -0.708720
      4          8           0       -1.736261   -0.605999   -0.319116
      5          6           0       -2.932874   -0.089703    0.274913
      6          1           0       -2.707524    0.582459    1.105003
      7          1           0       -3.496621    0.444987   -0.486895
      8          1           0       -3.529990   -0.923341    0.639472
      9          1           0       -0.941674    0.180870   -0.665375
     10          1           0       -0.995335   -0.950647    0.417064
     11          6           0        2.344501    0.153381    0.539320
     12          1           0        2.950215   -0.675150    0.903382
     13          1           0        2.843300    0.608149   -0.312784
     14          1           0        2.233739    0.874308    1.345454
     15          6           0        0.107342    2.028846   -0.059361
     16          1           0        1.059430    2.551305   -0.142112
     17          1           0       -0.656411    2.619178   -0.565269
     18          1           0       -0.159019    1.923415    0.995830
     19          9           0        1.198121   -1.273117   -0.964184
 ---------------------------------------------------------------------

 SCF Done:  E(RB3LYP) =  -484.713207717     A.U. after    1 cycles

 The electronic state is 1-A.
 Alpha  occ. eigenvalues --  -24.67536 -19.17046 -19.16167 -19.10186 -10.34470
 Alpha  occ. eigenvalues --  -10.24210 -10.23468 -10.17703  -1.19019  -1.07823
 Alpha  occ. eigenvalues --   -1.03237  -1.00870  -0.75525  -0.72437  -0.70057
 Alpha  occ. eigenvalues --   -0.58731  -0.55464  -0.55279  -0.51861  -0.48722
 Alpha  occ. eigenvalues --   -0.47356  -0.46757  -0.45853  -0.45500  -0.41984
 Alpha  occ. eigenvalues --   -0.41240  -0.40525  -0.38533  -0.37343  -0.36149
 Alpha  occ. eigenvalues --   -0.34679  -0.30402  -0.29181  -0.28124
 Alpha virt. eigenvalues --   -0.02012  -0.00412   0.00547   0.00721   0.02001
 Alpha virt. eigenvalues --    0.02176   0.02753   0.03337   0.04357   0.04909
 Alpha virt. eigenvalues --    0.05222   0.05581   0.06182   0.06532   0.06561

 Mulliken charges:
               1
     1  C    0.725701
     2  O   -0.870662
     3  O   -0.260369
     4  O   -0.280402
     5  C   -0.597429
     6  H    0.292778
     7  H    0.275375
     8  H    0.232317
     9  H    0.227257
    10  H    0.188184
    11  C   -0.822616
    12  H    0.184829
    13  H    0.276519
    14  H    0.188817
    15  C   -0.549103
    16  H    0.213011
    17  H    0.211867
    18  H    0.288885
    19  F    0.075037
 Sum of Mulliken charges =   0.00000

 Dipole moment (field-independent basis, Debye):
    X=             -1.9180    Y=              3.6702    Z=              1.0922  Tot=              4.2828
 Quadrupole moment (field-independent basis, Debye-Ang):
   XX=            -39.6499   YY=            -49.7100   ZZ=            -54.4418
   XY=              1.2005   XZ=              0.5562   YZ=             -0.4500

  Exact polarizability:  86.815  -0.031  73.350   0.880  -1.683  63.665
 Approx polarizability: 103.090  -0.506  99.587  -0.567  -3.034  95.960

 ******    1 imaginary frequencies (negative Signs) ******

                      1                      2                      3
                      A                      A                      A
 Frequencies --  -1184.2357                63.0376                94.6642
 Red. masses --      1.2048                 3.9002                 1.0604
 Frc consts  --      0.9955                 0.0091                 0.0056
 IR Inten    --    333.7316                 3.3964                 0.0951

                      4                      5                      6
                      A                      A                      A
 Frequencies --    107.9388               152.0278               186.9635
 Red. masses --      2.6274                 3.6070                 1.0560
 Frc consts  --      0.0180                 0.0491                 0.0217
 IR Inten    --      0.5477                 5.7636                 0.0857

                      7                      8                      9
                      A                      A                      A
 Frequencies --    197.9656               226.0903               253.0855
 Red. masses --      3.2779                 1.4150                 1.7179
 Frc consts  --      0.0757                 0.0426                 0.0648
 IR Inten    --      2.3952                 1.5160                 6.3002

                     10                     11                     12
                      A                      A                      A
 Frequencies --    312.0269               336.0515               370.1235
 Red. masses --      4.1966                 3.5413                 6.2247
 Frc consts  --      0.2407                 0.2356                 0.5024
 IR Inten    --      6.6472                12.5048                81.3816

                     13                     14                     15
                      A                      A                      A
 Frequencies --    472.8682               508.0470               564.6937
 Red. masses --      4.6124                 5.4637                 5.2258
 Frc consts  --      0.6077                 0.8309                 0.9818
 IR Inten    --     33.4780               120.6286                 3.6889

                     16                     17                     18
                      A                      A                      A
 Frequencies --    631.4578               649.0024               777.3726
 Red. masses --      5.9132                 3.9593                 4.7540
 Frc consts  --      1.3892                 0.9826                 1.6927
 IR Inten    --    269.7958               255.5195               157.8809

                     19                     20                     21
                      A                      A                      A
 Frequencies --    982.9205              1031.0269              1067.1504
 Red. masses --      3.0173                 2.5043                 3.3536
 Frc consts  --      1.7175                 1.5684                 2.2502
 IR Inten    --    197.4832               264.5321               120.8663

                     22                     23                     24
                      A                      A                      A
 Frequencies --   1076.9924              1133.2077              1147.9822
 Red. masses --      1.7100                 1.4376                 1.9074
 Frc consts  --      1.1686                 1.0877                 1.4810
 IR Inten    --    318.5200               223.3357                43.4811

                     25                     26                     27
                      A                      A                      A
 Frequencies --   1175.0884              1182.2410              1204.2794
 Red. masses --      1.3238                 1.2916                 1.6134
 Frc consts  --      1.0770                 1.0637                 1.3786
 IR Inten    --    112.5947                10.9258                97.9046

                     28                     29                     30
                      A                      A                      A
 Frequencies --   1213.7153              1322.6316              1405.9842
 Red. masses --      1.2739                 1.3531                 1.2742
 Frc consts  --      1.1057                 1.3946                 1.4840
 IR Inten    --    366.4669              1599.7925               105.1885

                     31                     32                     33
                      A                      A                      A
 Frequencies --   1464.0608              1470.7015              1478.9488
 Red. masses --      1.1130                 1.1335                 1.1030
 Frc consts  --      1.4056                 1.4446                 1.4215
 IR Inten    --     44.6468                12.1466                44.5985

                     34                     35                     36
                      A                      A                      A
 Frequencies --   1482.1030              1495.8848              1501.4867
 Red. masses --      1.0550                 1.0525                 1.0536
 Frc consts  --      1.3654                 1.3877                 1.3994
 IR Inten    --      3.5636                 3.5387                12.1546

                     37                     38                     39
                      A                      A                      A
 Frequencies --   1505.2390              1514.1593              1537.7930
 Red. masses --      1.0516                 1.0639                 1.6091
 Frc consts  --      1.4038                 1.4372                 2.2420
 IR Inten    --     12.1496                19.3285               610.0920

                     40                     41                     42
                      A                      A                      A
 Frequencies --   1572.2772              1781.7428              2118.2133
 Red. masses --      1.3625                 1.2221                 1.0378
 Frc consts  --      1.9845                 2.2858                 2.7434
 IR Inten    --    439.8809               438.1174               928.0179

                     43                     44                     45
                      A                      A                      A
 Frequencies --   3013.0701              3030.5346              3060.1896
 Red. masses --      1.0354                 1.0340                 1.0344
 Frc consts  --      5.5382                 5.5952                 5.7075
 IR Inten    --     31.3281                29.2184                 3.4298

                     46                     47                     48
                      A                      A                      A
 Frequencies --   3082.0886              3099.6000              3102.2646
 Red. masses --      1.0981                 1.1007                 1.1057
 Frc consts  --      6.1458                 6.2307                 6.2695
 IR Inten    --     22.8934                31.2447                16.9281

                     49                     50                     51
                      A                      A                      A
 Frequencies --   3121.3495              3128.2055              3143.6056
 Red. masses --      1.1071                 1.1012                 1.1047
 Frc consts  --      6.3552                 6.3491                 6.4320
 IR Inten    --     15.7491                 8.1343                 9.3837

 - Thermochemistry -
 -------------------
 Temperature   298.150 Kelvin.  Pressure   1.00000 Atm.
 Atom     1 has atomic number  6 and mass  12.00000

 Molecular mass:   126.06922 amu.
 Principal axes and moments of inertia in atomic units:
                           1         2         3
     Eigenvalues --   665.077841326.621531595.74577
           X            0.99966   0.02432   0.00934
           Y           -0.02417   0.99959  -0.01512
           Z           -0.00971   0.01489   0.99984
 This molecule is an asymmetric top.
 Rotational symmetry number  1.
 Warning -- assumption of classical behavior for rotation
           may cause significant error
 Rotational temperatures (Kelvin)      0.13023     0.06529     0.05428
 Rotational constants (GHZ):           2.71358     1.36040     1.13097
    1 imaginary frequencies ignored.
 Zero-point vibrational energy     398058.3 (Joules/Mol)
                                   95.13822 (Kcal/Mol)
 Warning -- explicit consideration of  14 degrees of freedom as
           vibrations may cause significant error
 Vibrational temperatures:     90.70   136.20   155.30   218.73   269.00
          (Kelvin)            284.83   325.29   364.13   448.94   483.50
                              532.52   680.35   730.97   812.47   908.53
                              933.77  1118.46  1414.20  1483.42  1535.39
                             1549.55  1630.43  1651.69  1690.69  1700.98
                             1732.69  1746.26  1902.97  2022.90  2106.45
                             2116.01  2127.87  2132.41  2152.24  2160.30
                             2165.70  2178.53  2212.54  2262.15  2563.53
                             3047.63  4335.13  4360.26  4402.92  4434.43
                             4459.63  4463.46  4490.92  4500.78  4522.94

 Zero-point correction=                           0.151612 (Hartree/Particle)
 Thermal correction to Energy=                    0.161942
 Thermal correction to Enthalpy=                  0.162886
 Thermal correction to Gibbs Free Energy=         0.116158
 Sum of electronic and zero-point Energies=           -484.561595
 Sum of electronic and thermal Energies=              -484.551266
 Sum of electronic and thermal Enthalpies=            -484.550321
 Sum of electronic and thermal Free Energies=         -484.597050

                     E (Thermal)             CV                S
                      KCal/Mol        Cal/Mol-Kelvin    Cal/Mol-Kelvin
 Total                  101.620             35.717             98.348
 Electronic               0.000              0.000              0.000
 Translational            0.889              2.981             40.409
 Rotational               0.889              2.981             28.734
 Vibrational             99.843             29.755             29.206
 Vibration     1          0.597              1.972              4.360
 Vibration     2          0.603              1.953              3.561
 Vibration     3          0.606              1.943              3.306
 Vibration     4          0.619              1.900              2.647
 Vibration     5          0.632              1.858              2.258
 Vibration     6          0.637              1.843              2.152
 Vibration     7          0.650              1.801              1.910
 Vibration     8          0.664              1.758              1.709
 Vibration     9          0.700              1.651              1.352
 Vibration    10          0.717              1.604              1.231
 Vibration    11          0.742              1.534              1.079
 Vibration    12          0.830              1.310              0.730
 Vibration    13          0.863              1.232              0.638
 Vibration    14          0.921              1.108              0.515

 Optimization completed.
    -- Stationary point found.
 Normal termination of Gaussian 09 at Fri Mar 27 05:18:36 2015.
