 Gaussian 09, Revision D.01,
 Gaussian 09:  EM64L-G09RevD.01 24-Apr-2013

 -----------------------------------------------------------------
 # freq=noraman b3lyp/genecp geom=connectivity gfinput pseudo=read
 -----------------------------------------------------------------

 ---------------------------------------------------------
 gen calculation freq ts624Br-C H O=aug-ccpvtz/Br=Def2TZVP
 ---------------------------------------------------------
 Symbolic Z-matrix:
 Charge =  0 Multiplicity = 1

                         Standard orientation:
 ---------------------------------------------------------------------
 Center     Atomic      Atomic             Coordinates (Angstroms)
 Number     Number       Type             X           Y           Z
 ---------------------------------------------------------------------
      1          6           0        0.245687    0.680344    0.495433
      2          8           0       -0.457574    0.250083    1.459661
      3          8           0       -0.556951    0.782143   -0.788268
      4          8           0       -1.860891   -1.086117    0.067409
      5          6           0       -3.298145   -1.197553    0.104024
      6          1           0       -3.765071   -0.217574    0.196164
      7          1           0       -3.621760   -1.686309   -0.810719
      8          1           0       -3.554654   -1.814883    0.959752
      9          1           0       -1.465827   -0.346086   -0.539500
     10          1           0       -1.362623   -0.645304    0.922090
     11          6           0        1.099072    1.906572    0.726830
     12          1           0        1.589011    1.783538    1.690016
     13          1           0        1.847189    2.034732   -0.048000
     14          1           0        0.468048    2.794478    0.787635
     15          6           0       -1.285050    2.005370   -0.944528
     16          1           0       -0.616537    2.820372   -1.219474
     17          1           0       -1.990084    1.848515   -1.760322
     18          1           0       -1.833374    2.273545   -0.037351
     19         35           0        1.621132   -0.822351   -0.238322
 ---------------------------------------------------------------------

 SCF Done:  E(RB3LYP) =  -2959.01868833     A.U. after   14 cycles

 The electronic state is 1-A.
 Alpha  occ. eigenvalues -- -482.79785 -62.44470 -56.26051 -56.25781 -56.25771
 Alpha  occ. eigenvalues --  -19.21257 -19.17104 -19.11026 -10.32221 -10.26804
 Alpha  occ. eigenvalues --  -10.24158 -10.17407  -8.63437  -6.46206  -6.45382
 Alpha  occ. eigenvalues --   -6.45356  -2.57681  -2.57461  -2.57439  -2.56781
 Alpha  occ. eigenvalues --   -2.56780  -1.12201  -1.07076  -1.01075  -0.76569
 Alpha  occ. eigenvalues --   -0.75507  -0.72005  -0.69970  -0.58786  -0.58454
 Alpha  occ. eigenvalues --   -0.56780  -0.50123  -0.49863  -0.48471  -0.48244
 Alpha  occ. eigenvalues --   -0.44964  -0.43208  -0.42365  -0.41167  -0.39088
 Alpha  occ. eigenvalues --   -0.37936  -0.35958  -0.31702  -0.29116  -0.25904
 Alpha  occ. eigenvalues --   -0.24600  -0.24005
 Alpha virt. eigenvalues --   -0.02879  -0.01398  -0.00886   0.00157   0.00490
 Alpha virt. eigenvalues --    0.01150   0.01959   0.02352   0.03202   0.04127
 Alpha virt. eigenvalues --    0.04592   0.04909   0.05538   0.05725   0.06272

 Mulliken charges:
               1
     1  C    0.582022
     2  O   -0.813892
     3  O   -0.182201
     4  O   -0.140546
     5  C   -0.603695
     6  H    0.290845
     7  H    0.276751
     8  H    0.284504
     9  H    0.178207
    10  H    0.185146
    11  C   -0.598813
    12  H    0.219025
    13  H    0.271194
    14  H    0.165802
    15  C   -0.570068
    16  H    0.210716
    17  H    0.198387
    18  H    0.281824
    19  Br  -0.235208
 Sum of Mulliken charges =   0.00000

 Dipole moment (field-independent basis, Debye):
    X=             -6.4614    Y=              2.3111    Z=             -0.9351  Tot=              6.9257
 Quadrupole moment (field-independent basis, Debye-Ang):
   XX=            -51.7303   YY=            -58.3343   ZZ=            -66.7332
   XY=              6.2528   XZ=              2.4956   YZ=             -1.8150

  Exact polarizability: 112.629  -5.284 102.643  -1.600   3.024  84.467
 Approx polarizability: 151.613 -16.148 145.340 -11.636   9.644 133.270

 ******    1 imaginary frequencies (negative Signs) ******

                      1                      2                      3
                      A                      A                      A
 Frequencies --   -614.2596                36.4078                76.0547
 Red. masses --      1.5812                 4.3658                 2.7632
 Frc consts  --      0.3515                 0.0034                 0.0094
 IR Inten    --    447.0499                 2.5297                 0.1923

                      4                      5                      6
                      A                      A                      A
 Frequencies --    101.8780               136.8954               155.1986
 Red. masses --      1.0755                 3.5697                 3.3765
 Frc consts  --      0.0066                 0.0394                 0.0479
 IR Inten    --      0.8503                 5.4460                 3.0564

                      7                      8                      9
                      A                      A                      A
 Frequencies --    190.1742               206.3520               212.3036
 Red. masses --      1.3124                 1.3808                 5.5819
 Frc consts  --      0.0280                 0.0346                 0.1482
 IR Inten    --      9.6141                20.7638                48.8950

                     10                     11                     12
                      A                      A                      A
 Frequencies --    261.4400               277.8679               330.0900
 Red. masses --      3.5631                 1.8999                 2.7890
 Frc consts  --      0.1435                 0.0864                 0.1790
 IR Inten    --     11.8885                 2.5620                13.9775

                     13                     14                     15
                      A                      A                      A
 Frequencies --    382.1509               390.0923               518.9306
 Red. masses --      4.7558                 3.3503                 4.8426
 Frc consts  --      0.4092                 0.3004                 0.7683
 IR Inten    --     97.3810                21.0694                73.8271

                     16                     17                     18
                      A                      A                      A
 Frequencies --    620.6617               651.3600               696.4469
 Red. masses --      3.5463                 4.9584                 2.4879
 Frc consts  --      0.8049                 1.2395                 0.7110
 IR Inten    --    197.7158               248.1109                58.0303

                     19                     20                     21
                      A                      A                      A
 Frequencies --    965.4747              1008.7165              1035.2929
 Red. masses --      2.7901                 3.0220                 2.9908
 Frc consts  --      1.5323                 1.8117                 1.8887
 IR Inten    --     68.1476                95.8641               103.6046

                     22                     23                     24
                      A                      A                      A
 Frequencies --   1058.2261              1075.5103              1117.2862
 Red. masses --      1.7908                 1.4868                 1.9430
 Frc consts  --      1.1816                 1.0133                 1.4291
 IR Inten    --    145.9416                98.3749               154.5410

                     25                     26                     27
                      A                      A                      A
 Frequencies --   1164.5116              1174.5535              1191.9603
 Red. masses --      1.2120                 1.2988                 1.3071
 Frc consts  --      0.9683                 1.0557                 1.0942
 IR Inten    --     34.3909                 2.8423               180.8695

                     28                     29                     30
                      A                      A                      A
 Frequencies --   1205.3608              1322.9103              1403.9619
 Red. masses --      1.4356                 1.1654                 1.2460
 Frc consts  --      1.2289                 1.2017                 1.4470
 IR Inten    --     58.6643               186.3577                18.0077

                     31                     32                     33
                      A                      A                      A
 Frequencies --   1431.8912              1466.0381              1470.3073
 Red. masses --      1.3776                 1.2244                 1.1376
 Frc consts  --      1.6641                 1.5505                 1.4490
 IR Inten    --    468.4894                50.0361                 9.2088

                     34                     35                     36
                      A                      A                      A
 Frequencies --   1483.5249              1492.7015              1497.8253
 Red. masses --      1.0756                 1.1988                 1.0473
 Frc consts  --      1.3948                 1.5738                 1.3843
 IR Inten    --      8.5406                58.0373                 5.7714

                     37                     38                     39
                      A                      A                      A
 Frequencies --   1503.3780              1508.2793              1517.4045
 Red. masses --      1.0510                 1.2313                 1.0498
 Frc consts  --      1.3995                 1.6504                 1.4242
 IR Inten    --     12.3727                57.7871                 9.0939

                     40                     41                     42
                      A                      A                      A
 Frequencies --   1657.8987              2117.9963              2665.6519
 Red. masses --      1.2825                 1.1362                 1.0522
 Frc consts  --      2.0770                 3.0029                 4.4052
 IR Inten    --   1062.5295               362.0155              2020.3908

                     43                     44                     45
                      A                      A                      A
 Frequencies --   3013.1079              3047.7003              3052.7289
 Red. masses --      1.0358                 1.0422                 1.0328
 Frc consts  --      5.5405                 5.7035                 5.6706
 IR Inten    --     38.7618                21.1557                14.3905

                     46                     47                     48
                      A                      A                      A
 Frequencies --   3085.0456              3103.6332              3117.9062
 Red. masses --      1.0980                 1.1049                 1.0935
 Frc consts  --      6.1572                 6.2706                 6.2631
 IR Inten    --     19.7372                20.5299                 8.1786

                     49                     50                     51
                      A                      A                      A
 Frequencies --   3130.4753              3153.6304              3158.7716
 Red. masses --      1.1037                 1.1080                 1.1035
 Frc consts  --      6.3725                 6.4927                 6.4873
 IR Inten    --     10.9186                 6.0251                 3.1719

 - Thermochemistry -
 -------------------
 Temperature   298.150 Kelvin.  Pressure   1.00000 Atm.
 Atom     1 has atomic number  6 and mass  12.00000

 Molecular mass:   185.98916 amu.
 Principal axes and moments of inertia in atomic units:
                           1         2         3
     Eigenvalues --  1115.580002042.469812591.60520
           X            0.99598   0.08734   0.01980
           Y           -0.08688   0.99595  -0.02297
           Z           -0.02173   0.02115   0.99954
 This molecule is an asymmetric top.
 Rotational symmetry number  1.
 Warning -- assumption of classical behavior for rotation
           may cause significant error
 Rotational temperatures (Kelvin)      0.07764     0.04241     0.03342
 Rotational constants (GHZ):           1.61776     0.88361     0.69638
    1 imaginary frequencies ignored.
 Zero-point vibrational energy     398619.4 (Joules/Mol)
                                   95.27233 (Kcal/Mol)
 Warning -- explicit consideration of  15 degrees of freedom as
           vibrations may cause significant error
 Vibrational temperatures:     52.38   109.43   146.58   196.96   223.30
          (Kelvin)            273.62   296.89   305.46   376.15   399.79
                              474.93   549.83   561.26   746.62   892.99
                              937.16  1002.03  1389.10  1451.32  1489.55
                             1522.55  1547.42  1607.52  1675.47  1689.92
                             1714.96  1734.24  1903.37  2019.99  2060.17
                             2109.30  2115.44  2134.46  2147.66  2155.03
                             2163.02  2170.07  2183.20  2385.34  3047.32
                             3835.27  4335.18  4384.96  4392.19  4438.69
                             4465.43  4485.97  4504.05  4537.37  4544.76

 Zero-point correction=                           0.151826 (Hartree/Particle)
 Thermal correction to Energy=                    0.162890
 Thermal correction to Enthalpy=                  0.163834
 Thermal correction to Gibbs Free Energy=         0.113767
 Sum of electronic and zero-point Energies=          -2958.866862
 Sum of electronic and thermal Energies=             -2958.855798
 Sum of electronic and thermal Enthalpies=           -2958.854854
 Sum of electronic and thermal Free Energies=        -2958.904921

                     E (Thermal)             CV                S
                      KCal/Mol        Cal/Mol-Kelvin    Cal/Mol-Kelvin
 Total                  102.215             37.084            105.375
 Electronic               0.000              0.000              0.000
 Translational            0.889              2.981             41.568
 Rotational               0.889              2.981             30.158
 Vibrational            100.438             31.122             33.650
 Vibration     1          0.594              1.982              5.446
 Vibration     2          0.599              1.965              3.990
 Vibration     3          0.604              1.948              3.418
 Vibration     4          0.614              1.916              2.847
 Vibration     5          0.620              1.897              2.608
 Vibration     6          0.633              1.853              2.226
 Vibration     7          0.641              1.831              2.076
 Vibration     8          0.643              1.822              2.024
 Vibration     9          0.669              1.743              1.652
 Vibration    10          0.679              1.714              1.547
 Vibration    11          0.713              1.615              1.260
 Vibration    12          0.752              1.508              1.031
 Vibration    13          0.758              1.491              1.000
 Vibration    14          0.874              1.208              0.612
 Vibration    15          0.981              0.988              0.415

 Normal termination of Gaussian 09 at Mon Mar 30 19:38:45 2015.
