 Gaussian 09, Revision D.01,
 Gaussian 09:  EM64L-G09RevD.01 24-Apr-2013

 ----------------------------------------------------------------------
 # opt=(calcfc,ts,noeigentest) freq=noraman b3lyp/gen geom=connectivity
  gfinput pseudo=read
 ----------------------------------------------------------------------

 ---------------------------------------------------
 gen calculation ts624cl-C H O=aug-ccpvtz/Cl=lanl2dz
 ---------------------------------------------------
 Symbolic Z-matrix:
 Charge =  0 Multiplicity = 1

 SCF Done:  E(RB3LYP) =  -399.776703948     A.U. after   13 cycles
 SCF Done:  E(RB3LYP) =  -399.790420157     A.U. after   12 cycles
 SCF Done:  E(RB3LYP) =  -399.793820028     A.U. after   11 cycles
 SCF Done:  E(RB3LYP) =  -399.794144576     A.U. after   11 cycles
 SCF Done:  E(RB3LYP) =  -399.793354739     A.U. after   12 cycles
 SCF Done:  E(RB3LYP) =  -399.794129996     A.U. after   11 cycles
 SCF Done:  E(RB3LYP) =  -399.794217147     A.U. after   11 cycles
 SCF Done:  E(RB3LYP) =  -399.794256816     A.U. after   10 cycles
 SCF Done:  E(RB3LYP) =  -399.793052516     A.U. after   12 cycles
 SCF Done:  E(RB3LYP) =  -399.794055874     A.U. after   12 cycles
 SCF Done:  E(RB3LYP) =  -399.794232257     A.U. after   11 cycles
 SCF Done:  E(RB3LYP) =  -399.794257475     A.U. after   10 cycles
 SCF Done:  E(RB3LYP) =  -399.794204024     A.U. after   11 cycles
 SCF Done:  E(RB3LYP) =  -399.794257881     A.U. after   10 cycles
 SCF Done:  E(RB3LYP) =  -399.794258091     A.U. after    8 cycles
 Optimization completed.
    -- Stationary point found.
 Normal termination of Gaussian 09 at Sat Mar 28 01:41:11 2015.

 ------------------------------------------------------------------
 #N Geom=AllCheck Guess=TCheck SCRF=Check GenChk RB3LYP/ChkBas Freq
 ------------------------------------------------------------------

 Structure from the checkpoint file:  "/lustre/SCRATCH5/gau/mlawal/854268.sched01/Gau-16580.chk"
 ---------------------------------------------------
 gen calculation ts624cl-C H O=aug-ccpvtz/Cl=lanl2dz
 ---------------------------------------------------
 Charge =  0 Multiplicity = 1

                         Standard orientation:
 ---------------------------------------------------------------------
 Center     Atomic      Atomic             Coordinates (Angstroms)
 Number     Number       Type             X           Y           Z
 ---------------------------------------------------------------------
      1          6           0        0.804612    0.147137    0.438765
      2          6           0       -0.488960    2.070849   -0.661911
      3          1           0       -1.263457    2.251363   -1.405902
      4          1           0       -0.884495    2.277955    0.335062
      5          1           0        0.352289    2.730172   -0.866212
      6          6           0        1.943772    1.100344    0.694987
      7          1           0        2.645019    0.600945    1.359006
      8          1           0        2.457013    1.371676   -0.222835
      9          1           0        1.568671    1.990195    1.201008
     10          8           0       -0.080426    0.703379   -0.794281
     11          8           0       -1.754452   -0.861669   -0.098652
     12          6           0       -3.103775   -0.464558    0.195341
     13          1           0       -3.640594   -0.366453   -0.744871
     14          1           0       -3.568597   -1.243179    0.795512
     15          1           0       -3.127759    0.480443    0.739338
     16          1           0       -1.104830   -0.790599    0.744309
     17          1           0       -1.088391   -0.083691   -0.637060
     18         17           0        1.585074   -1.376139   -0.541359
     19          8           0        0.056751   -0.210098    1.380765
 ---------------------------------------------------------------------

 SCF Done:  E(RB3LYP) =  -399.794258091     A.U. after    1 cycles

 The electronic state is 1-A.
 Alpha  occ. eigenvalues --  -19.19112 -19.17652 -19.11126 -10.33133 -10.25445
 Alpha  occ. eigenvalues --  -10.24344 -10.17992  -1.10252  -1.05793  -1.01870
 Alpha  occ. eigenvalues --   -0.78747  -0.74536  -0.72954  -0.71029  -0.57738
 Alpha  occ. eigenvalues --   -0.56753  -0.56064  -0.49893  -0.49065  -0.47957
 Alpha  occ. eigenvalues --   -0.47522  -0.45119  -0.43695  -0.42501  -0.41424
 Alpha  occ. eigenvalues --   -0.38820  -0.37900  -0.36444  -0.31793  -0.29602
 Alpha  occ. eigenvalues --   -0.28018  -0.27769  -0.26583
 Alpha virt. eigenvalues --   -0.02517  -0.00721   0.00010   0.00334   0.01251
 Alpha virt. eigenvalues --    0.01611   0.02113   0.02594   0.03363   0.04236
 Alpha virt. eigenvalues --    0.04851   0.05081   0.05347   0.05935   0.06362

 Mulliken charges:
               1
     1  C   -0.053695
     2  C   -0.555930
     3  H    0.209448
     4  H    0.285704
     5  H    0.207394
     6  C   -0.446411
     7  H    0.232972
     8  H    0.259883
     9  H    0.173140
    10  O   -0.134588
    11  O   -0.263132
    12  C   -0.614229
    13  H    0.276909
    14  H    0.238950
    15  H    0.296913
    16  H    0.213100
    17  H    0.355504
    18  Cl   0.117081
    19  O   -0.799014
 Sum of Mulliken charges =   0.00000

 Dipole moment (field-independent basis, Debye):
    X=             -4.2941    Y=              4.1583    Z=             -0.0361  Tot=              5.9776
 Quadrupole moment (field-independent basis, Debye-Ang):
   XX=            -47.2073   YY=            -55.8310   ZZ=            -60.7811
   XY=              4.4102   XZ=              1.7433   YZ=             -1.9906

  Exact polarizability:  98.581  -3.006  90.995  -1.218   2.774  76.995
 Approx polarizability: 121.748  -7.728 124.883  -6.962   7.709 119.081

 ******    1 imaginary frequencies (negative Signs) ******

                      1                      2                      3
                      A                      A                      A
 Frequencies --   -989.4317                57.1565               102.0111
 Red. masses --      1.2743                 4.5873                 2.6646
 Frc consts  --      0.7350                 0.0088                 0.0163
 IR Inten    --    502.1292                 2.2920                 0.0930

                      4                      5                      6
                      A                      A                      A
 Frequencies --    115.8036               142.5538               175.2789
 Red. masses --      1.1309                 2.8658                 2.9393
 Frc consts  --      0.0089                 0.0343                 0.0532
 IR Inten    --      0.6060                 9.2723                 3.5333

                      7                      8                      9
                      A                      A                      A
 Frequencies --    177.3659               231.9964               262.0609
 Red. masses --      1.1591                 2.3808                 1.5814
 Frc consts  --      0.0215                 0.0755                 0.0640
 IR Inten    --      0.4769                15.4152                52.1933

                     10                     11                     12
                      A                      A                      A
 Frequencies --    279.5961               300.1568               313.7638
 Red. masses --      2.4281                 4.7176                 4.3846
 Frc consts  --      0.1118                 0.2504                 0.2543
 IR Inten    --     21.8882                74.6689                35.8928

                     13                     14                     15
                      A                      A                      A
 Frequencies --    352.6281               407.5700               532.7619
 Red. masses --      4.2995                 5.2596                 4.3066
 Frc consts  --      0.3150                 0.5148                 0.7202
 IR Inten    --     32.3402                39.4412               120.0489

                     16                     17                     18
                      A                      A                      A
 Frequencies --    585.7743               627.5744               637.9785
 Red. masses --      4.8297                 3.9564                 3.8721
 Frc consts  --      0.9764                 0.9181                 0.9286
 IR Inten    --    227.1738               102.6861               206.4702

                     19                     20                     21
                      A                      A                      A
 Frequencies --    960.4599              1015.3173              1045.2593
 Red. masses --      4.0926                 2.2693                 2.3983
 Frc consts  --      2.2244                 1.3783                 1.5438
 IR Inten    --    159.7045               249.9005               105.7348

                     22                     23                     24
                      A                      A                      A
 Frequencies --   1066.7695              1099.1496              1123.0945
 Red. masses --      2.1328                 1.4904                 1.7814
 Frc consts  --      1.4300                 1.0609                 1.3239
 IR Inten    --    191.3044               198.8744               109.9803

                     25                     26                     27
                      A                      A                      A
 Frequencies --   1168.1498              1176.3226              1194.1356
 Red. masses --      1.2314                 1.2908                 1.4295
 Frc consts  --      0.9900                 1.0524                 1.2010
 IR Inten    --     94.0816                 8.9566                93.2069

                     28                     29                     30
                      A                      A                      A
 Frequencies --   1203.6002              1360.8718              1404.3586
 Red. masses --      1.3052                 1.4095                 1.2575
 Frc consts  --      1.1140                 1.5380                 1.4612
 IR Inten    --    151.1075               980.5352                65.5251

                     31                     32                     33
                      A                      A                      A
 Frequencies --   1451.9702              1467.6154              1477.3622
 Red. masses --      1.0949                 1.1197                 1.0815
 Frc consts  --      1.3600                 1.4209                 1.3907
 IR Inten    --    106.2761                10.3365                27.4433

                     34                     35                     36
                      A                      A                      A
 Frequencies --   1480.3494              1494.2842              1500.3264
 Red. masses --      1.0689                 1.0552                 1.0529
 Frc consts  --      1.3801                 1.3882                 1.3964
 IR Inten    --     15.5978                 4.1223                 0.6819

                     37                     38                     39
                      A                      A                      A
 Frequencies --   1503.9744              1512.0595              1539.2879
 Red. masses --      1.0529                 1.0655                 1.8142
 Frc consts  --      1.4032                 1.4353                 2.5326
 IR Inten    --     33.2622                13.5719               644.4587

                     40                     41                     42
                      A                      A                      A
 Frequencies --   1565.5223              1852.2179              2335.4919
 Red. masses --      1.2794                 1.1661                 1.0588
 Frc consts  --      1.8474                 2.3571                 3.4026
 IR Inten    --    398.7223               272.7262              1475.6827

                     43                     44                     45
                      A                      A                      A
 Frequencies --   3021.8073              3040.7037              3052.5617
 Red. masses --      1.0345                 1.0334                 1.0380
 Frc consts  --      5.5658                 5.6297                 5.6984
 IR Inten    --     30.8345                22.1256                14.1631

                     46                     47                     48
                      A                      A                      A
 Frequencies --   3094.4247              3113.8453              3114.9841
 Red. masses --      1.0996                 1.1026                 1.1051
 Frc consts  --      6.2034                 6.2986                 6.3175
 IR Inten    --     18.0905                29.1780                 6.6700

                     49                     50                     51
                      A                      A                      A
 Frequencies --   3124.5401              3136.3103              3149.5943
 Red. masses --      1.0975                 1.1076                 1.1041
 Frc consts  --      6.3127                 6.4191                 6.4533
 IR Inten    --      7.8141                10.9105                 4.7376

 - Thermochemistry -
 -------------------
 Temperature   298.150 Kelvin.  Pressure   1.00000 Atm.
 Atom     1 has atomic number  6 and mass  12.00000

 Molecular mass:   142.03967 amu.
 Principal axes and moments of inertia in atomic units:
                           1         2         3
     Eigenvalues --   908.762651568.137331951.42169
           X            0.99816   0.05919   0.01341
           Y           -0.05877   0.99783  -0.02953
           Z           -0.01513   0.02869   0.99947
 This molecule is an asymmetric top.
 Rotational symmetry number  1.
 Warning -- assumption of classical behavior for rotation
           may cause significant error
 Rotational temperatures (Kelvin)      0.09531     0.05523     0.04438
 Rotational constants (GHZ):           1.98593     1.15088     0.92483
    1 imaginary frequencies ignored.
 Zero-point vibrational energy     395657.4 (Joules/Mol)
                                   94.56439 (Kcal/Mol)
 Warning -- explicit consideration of  15 degrees of freedom as
           vibrations may cause significant error
 Vibrational temperatures:     82.24   146.77   166.62   205.10   252.19
          (Kelvin)            255.19   333.79   377.05   402.28   431.86
                              451.44   507.35   586.40   766.52   842.80
                              902.94   917.91  1381.89  1460.81  1503.89
                             1534.84  1581.43  1615.88  1680.70  1692.46
                             1718.09  1731.71  1957.99  2020.56  2089.06
                             2111.57  2125.59  2129.89  2149.94  2158.63
                             2163.88  2175.51  2214.69  2252.43  2664.93
                             3360.25  4347.70  4374.89  4391.95  4452.18
                             4480.12  4481.76  4495.51  4512.45  4531.56

 Zero-point correction=                           0.150698 (Hartree/Particle)
 Thermal correction to Energy=                    0.161529
 Thermal correction to Enthalpy=                  0.162474
 Thermal correction to Gibbs Free Energy=         0.114313
 Sum of electronic and zero-point Energies=           -399.643560
 Sum of electronic and thermal Energies=              -399.632729
 Sum of electronic and thermal Enthalpies=            -399.631785
 Sum of electronic and thermal Free Energies=         -399.679945

                     E (Thermal)             CV                S
                      KCal/Mol        Cal/Mol-Kelvin    Cal/Mol-Kelvin
 Total                  101.361             37.059            101.363
 Electronic               0.000              0.000              0.000
 Translational            0.889              2.981             40.764
 Rotational               0.889              2.981             29.410
 Vibrational             99.584             31.097             31.189
 Vibration     1          0.596              1.975              4.553
 Vibration     2          0.604              1.948              3.416
 Vibration     3          0.608              1.936              3.169
 Vibration     4          0.616              1.911              2.769
 Vibration     5          0.627              1.873              2.378
 Vibration     6          0.628              1.870              2.356
 Vibration     7          0.653              1.792              1.863
 Vibration     8          0.669              1.742              1.648
 Vibration     9          0.680              1.711              1.536
 Vibration    10          0.693              1.673              1.416
 Vibration    11          0.702              1.647              1.342
 Vibration    12          0.729              1.570              1.154
 Vibration    13          0.772              1.454              0.935
 Vibration    14          0.888              1.178              0.581
 Vibration    15          0.943              1.062              0.475

 Optimization completed.
    -- Stationary point found.
 Normal termination of Gaussian 09 at Sat Mar 28 09:11:04 2015.
