 Gaussian 09, Revision D.01,
 Gaussian 09:  EM64L-G09RevD.01 24-Apr-2013

 ----------------------------------------------------------------------
 # opt=(calcfc,ts,noeigentest) freq=noraman b3lyp/gen pseudo=read gfinp
 ut geom=connectivity
 ----------------------------------------------------------------------

 ------------------
 gen calculation-ts624I C H O=6-31+g(d)/I=lanl2dz
 ------------------
 Symbolic Z-matrix:
 Charge =  0 Multiplicity = 1

 SCF Done:  E(RB3LYP) =  -682.310563120     A.U. after   16 cycles
 SCF Done:  E(RB3LYP) =  -682.365015731     A.U. after   13 cycles
 SCF Done:  E(RB3LYP) =  -682.411875064     A.U. after   14 cycles
 SCF Done:  E(RB3LYP) =  -682.432794727     A.U. after   12 cycles
 SCF Done:  E(RB3LYP) =  -682.446505968     A.U. after   12 cycles
 SCF Done:  E(RB3LYP) =  -682.459100795     A.U. after   12 cycles
 SCF Done:  E(RB3LYP) =  -682.466386116     A.U. after   12 cycles
 SCF Done:  E(RB3LYP) =  -682.465918074     A.U. after   12 cycles
 SCF Done:  E(RB3LYP) =  -682.464853429     A.U. after   12 cycles
 SCF Done:  E(RB3LYP) =  -682.470658033     A.U. after   12 cycles
 SCF Done:  E(RB3LYP) =  -682.475077515     A.U. after   11 cycles
 SCF Done:  E(RB3LYP) =  -682.474651065     A.U. after   12 cycles
 SCF Done:  E(RB3LYP) =  -682.475044076     A.U. after   11 cycles
 SCF Done:  E(RB3LYP) =  -682.475078669     A.U. after   10 cycles
 SCF Done:  E(RB3LYP) =  -682.475089790     A.U. after   10 cycles
 SCF Done:  E(RB3LYP) =  -682.475090848     A.U. after    9 cycles
 SCF Done:  E(RB3LYP) =  -682.475090970     A.U. after    8 cycles
 SCF Done:  E(RB3LYP) =  -682.475090888     A.U. after    9 cycles
 SCF Done:  E(RB3LYP) =  -682.475091107     A.U. after    8 cycles
 Optimization completed.
    -- Stationary point found.
 Normal termination of Gaussian 09 at Wed Feb 18 17:39:02 2015.

 ------------------------------------------------------------------
 #N Geom=AllCheck Guess=TCheck SCRF=Check GenChk RB3LYP/ChkBas Freq
 ------------------------------------------------------------------

 Structure from the checkpoint file:  "/lustre/SCRATCH5/gau/Gau-24235.chk"
 ------------------
 gen calculation-ts624I C H O=6-31+g(d)/I=lanl2dz
 ------------------
 Charge =  0 Multiplicity = 1

                         Standard orientation:
 ---------------------------------------------------------------------
 Center     Atomic      Atomic             Coordinates (Angstroms)
 Number     Number       Type             X           Y           Z
 ---------------------------------------------------------------------
      1          6           0       -0.289669    0.824046    0.554354
      2          8           0       -0.917621    0.271972    1.500914
      3          8           0       -1.096294    0.681073   -0.817012
      4          8           0       -1.993669   -1.385151    0.037041
      5          6           0       -3.419041   -1.601724    0.131370
      6          1           0       -3.589859   -2.410802    0.843911
      7          1           0       -3.932304   -0.693113    0.463532
      8          1           0       -3.772208   -1.901229   -0.856831
      9          1           0       -1.665510   -0.484866   -0.591900
     10          1           0       -1.592743   -0.930591    0.903641
     11          6           0        0.208257    2.246832    0.710356
     12          1           0        0.944208    2.256944    1.517252
     13          1           0        0.677601    2.619583   -0.201868
     14          1           0       -0.626796    2.896674    1.003466
     15          6           0       -2.079618    1.706382   -1.053549
     16          1           0       -1.579632    2.638958   -1.326671
     17          1           0       -2.689917    1.371966   -1.897271
     18          1           0       -2.714153    1.865721   -0.172827
     19         53           0        1.624197   -0.430672   -0.141645
 ---------------------------------------------------------------------

 SCF Done:  E(RB3LYP) =  -682.475091107     A.U. after    1 cycles

 The electronic state is 1-A.
 Alpha  occ. eigenvalues --  -19.22591 -19.20227 -19.14123 -10.33462 -10.27354
 Alpha  occ. eigenvalues --  -10.25744 -10.19116  -6.79057  -4.81282  -4.80440
 Alpha  occ. eigenvalues --   -4.80411  -1.86078  -1.85836  -1.85806  -1.85085
 Alpha  occ. eigenvalues --   -1.85083  -1.11267  -1.06607  -1.01893  -0.76037
 Alpha  occ. eigenvalues --   -0.74839  -0.71970  -0.64456  -0.58313  -0.57848
 Alpha  occ. eigenvalues --   -0.56440  -0.49922  -0.49669  -0.48484  -0.48110
 Alpha  occ. eigenvalues --   -0.45002  -0.43370  -0.43014  -0.41724  -0.38970
 Alpha  occ. eigenvalues --   -0.38042  -0.36181  -0.32164  -0.29241  -0.24352
 Alpha  occ. eigenvalues --   -0.22613  -0.22179
 Alpha virt. eigenvalues --   -0.03785  -0.01553   0.00549   0.00734   0.02218
 Alpha virt. eigenvalues --    0.02918   0.03785   0.04674   0.06353   0.06999
 Alpha virt. eigenvalues --    0.07450   0.07994   0.08779   0.09678   0.10598

 Mulliken charges:
               1
     1  C    0.270134
     2  O   -0.462313
     3  O   -0.494428
     4  O   -0.763369
     5  C   -0.370587
     6  H    0.223206
     7  H    0.208137
     8  H    0.219041
     9  H    0.600924
    10  H    0.573188
    11  C   -0.655230
    12  H    0.252857
    13  H    0.238203
    14  H    0.213637
    15  C   -0.386800
    16  H    0.219412
    17  H    0.206829
    18  H    0.215695
    19  I   -0.308535
 Sum of Mulliken charges =   0.00000

 Dipole moment (field-independent basis, Debye):
    X=             -6.9239    Y=              1.5708    Z=             -1.2137  Tot=              7.2028
 Quadrupole moment (field-independent basis, Debye-Ang):
   XX=            -58.6179   YY=            -65.1500   ZZ=            -75.9660
   XY=              4.5236   XZ=              3.4875   YZ=             -1.7416

  Exact polarizability: 131.447  -9.449 106.406  -4.574   2.772  89.913
 Approx polarizability: 193.247 -25.614 153.905 -22.390   9.408 148.050

 ******    1 imaginary frequencies (negative Signs) ******

                      1                      2                      3
                      A                      A                      A
 Frequencies --   -861.2558                47.8994                95.1691
 Red. masses --      1.3431                 4.5892                 2.8349
 Frc consts  --      0.5870                 0.0062                 0.0151
 IR Inten    --    481.3445                 2.3580                 0.3388

                      4                      5                      6
                      A                      A                      A
 Frequencies --    117.9574               129.3631               148.3199
 Red. masses --      1.3906                 2.7235                 2.4510
 Frc consts  --      0.0114                 0.0269                 0.0318
 IR Inten    --      4.4047                16.1119                 8.4524

                      7                      8                      9
                      A                      A                      A
 Frequencies --    182.6954               190.0145               236.7643
 Red. masses --      6.3863                 1.1632                 2.3178
 Frc consts  --      0.1256                 0.0247                 0.0766
 IR Inten    --     71.7816                 1.9862                 7.3264

                     10                     11                     12
                      A                      A                      A
 Frequencies --    245.1815               289.4807               302.0114
 Red. masses --      3.7455                 1.2409                 2.4720
 Frc consts  --      0.1327                 0.0613                 0.1328
 IR Inten    --      1.3138                 0.5076                 3.9586

                     13                     14                     15
                      A                      A                      A
 Frequencies --    337.0741               371.3624               514.3256
 Red. masses --      4.4119                 4.0551                 4.3993
 Frc consts  --      0.2953                 0.3295                 0.6857
 IR Inten    --    138.9104                30.7255                88.6764

                     16                     17                     18
                      A                      A                      A
 Frequencies --    580.0023               606.3590               632.6338
 Red. masses --      5.2041                 3.7089                 3.2699
 Frc consts  --      1.0315                 0.8034                 0.7711
 IR Inten    --    185.9303               129.4597               215.9291

                     19                     20                     21
                      A                      A                      A
 Frequencies --    961.9891              1009.1943              1040.9252
 Red. masses --      4.2343                 2.4002                 2.8233
 Frc consts  --      2.3087                 1.4403                 1.8024
 IR Inten    --    143.1377               252.7785                59.9749

                     22                     23                     24
                      A                      A                      A
 Frequencies --   1062.2663              1096.6037              1129.1044
 Red. masses --      1.9342                 1.5264                 1.5446
 Frc consts  --      1.2859                 1.0815                 1.1602
 IR Inten    --    251.7340               176.2640               110.7938

                     25                     26                     27
                      A                      A                      A
 Frequencies --   1166.8508              1175.3000              1196.8502
 Red. masses --      1.2129                 1.2829                 1.4210
 Frc consts  --      0.9730                 1.0441                 1.1993
 IR Inten    --     95.3514                13.5755               102.8072

                     28                     29                     30
                      A                      A                      A
 Frequencies --   1211.7887              1390.6083              1419.3896
 Red. masses --      1.2986                 1.4847                 1.2463
 Frc consts  --      1.1235                 1.6916                 1.4794
 IR Inten    --    212.0151               769.6826                38.0051

                     31                     32                     33
                      A                      A                      A
 Frequencies --   1467.2446              1479.0644              1496.0362
 Red. masses --      1.1068                 1.1384                 1.0760
 Frc consts  --      1.4039                 1.4673                 1.4189
 IR Inten    --     99.8943                13.3503                46.7407

                     34                     35                     36
                      A                      A                      A
 Frequencies --   1501.4314              1511.8341              1518.7614
 Red. masses --      1.0795                 1.0660                 1.0511
 Frc consts  --      1.4338                 1.4356                 1.4285
 IR Inten    --     22.7384                 8.1319                 4.7406

                     37                     38                     39
                      A                      A                      A
 Frequencies --   1521.4758              1531.1401              1548.6147
 Red. masses --      1.0585                 1.0811                 1.9831
 Frc consts  --      1.4437                 1.4933                 2.8021
 IR Inten    --     32.6512                26.1776               454.1734

                     40                     41                     42
                      A                      A                      A
 Frequencies --   1577.5480              1908.6070              2463.6538
 Red. masses --      1.1489                 1.1342                 1.0630
 Frc consts  --      1.6846                 2.4344                 3.8013
 IR Inten    --    815.0118               236.3056              1485.6497

                     43                     44                     45
                      A                      A                      A
 Frequencies --   3045.3535              3052.7774              3070.7208
 Red. masses --      1.0356                 1.0440                 1.0334
 Frc consts  --      5.6589                 5.7327                 5.7414
 IR Inten    --     23.1449                52.4970                23.6174

                     46                     47                     48
                      A                      A                      A
 Frequencies --   3127.3392              3139.7824              3151.2366
 Red. masses --      1.1006                 1.0891                 1.1066
 Frc consts  --      6.3421                 6.3256                 6.4744
 IR Inten    --     19.2267                 8.8199                20.3699

                     49                     50                     51
                      A                      A                      A
 Frequencies --   3154.5865              3175.1010              3180.5819
 Red. masses --      1.1029                 1.1046                 1.1089
 Frc consts  --      6.4667                 6.5610                 6.6095
 IR Inten    --     11.7314                 3.3997                 9.0555

 - Thermochemistry -
 -------------------
 Temperature   298.150 Kelvin.  Pressure   1.00000 Atm.
 Atom     1 has atomic number  6 and mass  12.00000

 Molecular mass:   233.97122 amu.
 Principal axes and moments of inertia in atomic units:
                           1         2         3
     Eigenvalues --  1154.149932730.018753284.59517
           X            0.99872   0.04759   0.01688
           Y           -0.04730   0.99874  -0.01684
           Z           -0.01766   0.01602   0.99972
 This molecule is an asymmetric top.
 Rotational symmetry number  1.
 Warning -- assumption of classical behavior for rotation
           may cause significant error
 Rotational temperatures (Kelvin)      0.07505     0.03173     0.02637
 Rotational constants (GHZ):           1.56370     0.66107     0.54946
    1 imaginary frequencies ignored.
 Zero-point vibrational energy     397820.4 (Joules/Mol)
                                   95.08135 (Kcal/Mol)
 Warning -- explicit consideration of  16 degrees of freedom as
           vibrations may cause significant error
 Vibrational temperatures:     68.92   136.93   169.71   186.12   213.40
          (Kelvin)            262.86   273.39   340.65   352.76   416.50
                              434.53   484.97   534.31   740.00   834.49
                              872.41   910.22  1384.09  1452.00  1497.66
                             1528.36  1577.77  1624.53  1678.84  1690.99
                             1722.00  1743.49  2000.77  2042.18  2111.04
                             2128.04  2152.46  2160.22  2175.19  2185.16
                             2189.06  2202.97  2228.11  2269.74  2746.06
                             3544.64  4381.58  4392.26  4418.08  4499.54
                             4517.44  4533.92  4538.74  4568.26  4576.14

 Zero-point correction=                           0.151522 (Hartree/Particle)
 Thermal correction to Energy=                    0.162696
 Thermal correction to Enthalpy=                  0.163641
 Thermal correction to Gibbs Free Energy=         0.113161
 Sum of electronic and zero-point Energies=           -682.323569
 Sum of electronic and thermal Energies=              -682.312395
 Sum of electronic and thermal Enthalpies=            -682.311451
 Sum of electronic and thermal Free Energies=         -682.361930

                     E (Thermal)             CV                S
                      KCal/Mol        Cal/Mol-Kelvin    Cal/Mol-Kelvin
 Total                  102.093             37.468            106.244
 Electronic               0.000              0.000              0.000
 Translational            0.889              2.981             42.252
 Rotational               0.889              2.981             30.716
 Vibrational            100.316             31.507             33.276
 Vibration     1          0.595              1.978              4.902
 Vibration     2          0.603              1.953              3.551
 Vibration     3          0.608              1.934              3.134
 Vibration     4          0.612              1.924              2.955
 Vibration     5          0.618              1.905              2.694
 Vibration     6          0.630              1.863              2.301
 Vibration     7          0.633              1.854              2.228
 Vibration     8          0.656              1.784              1.827
 Vibration     9          0.660              1.771              1.765
 Vibration    10          0.686              1.693              1.477
 Vibration    11          0.694              1.670              1.406
 Vibration    12          0.718              1.601              1.226
 Vibration    13          0.743              1.531              1.074
 Vibration    14          0.869              1.218              0.623
 Vibration    15          0.937              1.075              0.485
 Vibration    16          0.965              1.018              0.439

 Normal termination of Gaussian 09 at Wed Feb 18 17:43:21 2015.
