 Gaussian 09, Revision D.01,
 Gaussian 09:  EM64L-G09RevD.01 24-Apr-2013

 ----------------------------------------------------------------------
 # opt=(calcfc,ts,noeigentest) freq=noraman b3lyp/gen pseudo=read gfinp
 ut geom=connectivity
 ----------------------------------------------------------------------

 --------------------------
 gen calculation-ts624I C H O=6-31+g(d)/I=def2tzvp
 --------------------------
 Symbolic Z-matrix:
 Charge =  0 Multiplicity = 1

 SCF Done:  E(RB3LYP) =  -682.475090537     A.U. after   14 cycles
 SCF Done:  E(RB3LYP) =  -682.475091403     A.U. after    9 cycles
 Optimization completed.
    -- Stationary point found.
 Normal termination of Gaussian 09 at Wed Feb 25 15:38:07 2015.

 ------------------------------------------------------------------
 #N Geom=AllCheck Guess=TCheck SCRF=Check GenChk RB3LYP/ChkBas Freq
 ------------------------------------------------------------------

 Structure from the checkpoint file:  "/lustre/SCRATCH5/gau/Gau-12236.chk"
 --------------------------
 gen calculation-ts624I C H O=6-31+g(d)/I=def2tzvp
 --------------------------
 Charge =  0 Multiplicity = 1

                         Standard orientation:
 ---------------------------------------------------------------------
 Center     Atomic      Atomic             Coordinates (Angstroms)
 Number     Number       Type             X           Y           Z
 ---------------------------------------------------------------------
      1          6           0       -0.290092    0.824564    0.554368
      2          8           0       -0.917567    0.272639    1.501141
      3          8           0       -1.096404    0.681178   -0.816868
      4          8           0       -1.994016   -1.385034    0.037275
      5          6           0       -3.419304   -1.602011    0.131538
      6          1           0       -3.933203   -0.692756    0.460933
      7          1           0       -3.771751   -1.904419   -0.856027
      8          1           0       -3.590043   -2.409233    0.846195
      9          1           0       -1.665215   -0.484997   -0.591987
     10          1           0       -1.593144   -0.931194    0.903840
     11          6           0        0.208458    2.247174    0.710022
     12          1           0        0.943637    2.257269    1.517612
     13          1           0        0.678822    2.619213   -0.201952
     14          1           0       -0.626473    2.897657    1.002084
     15          6           0       -2.080338    1.705852   -1.053892
     16          1           0       -1.580860    2.638662   -1.327102
     17          1           0       -2.690284    1.370861   -1.897629
     18          1           0       -2.715101    1.864981   -0.173316
     19         53           0        1.624437   -0.430751   -0.141646
 ---------------------------------------------------------------------

 SCF Done:  E(RB3LYP) =  -682.475091403     A.U. after    1 cycles

 The electronic state is 1-A.
 Alpha  occ. eigenvalues --  -19.22605 -19.20234 -19.14124 -10.33462 -10.27363
 Alpha  occ. eigenvalues --  -10.25749 -10.19115  -6.79045  -4.81269  -4.80428
 Alpha  occ. eigenvalues --   -4.80400  -1.86065  -1.85823  -1.85794  -1.85073
 Alpha  occ. eigenvalues --   -1.85071  -1.11276  -1.06616  -1.01896  -0.76036
 Alpha  occ. eigenvalues --   -0.74847  -0.71975  -0.64443  -0.58324  -0.57854
 Alpha  occ. eigenvalues --   -0.56445  -0.49924  -0.49677  -0.48487  -0.48118
 Alpha  occ. eigenvalues --   -0.45003  -0.43373  -0.43019  -0.41725  -0.38973
 Alpha  occ. eigenvalues --   -0.38046  -0.36184  -0.32170  -0.29241  -0.24340
 Alpha  occ. eigenvalues --   -0.22603  -0.22170
 Alpha virt. eigenvalues --   -0.03786  -0.01557   0.00547   0.00729   0.02216
 Alpha virt. eigenvalues --    0.02915   0.03782   0.04673   0.06353   0.06996
 Alpha virt. eigenvalues --    0.07452   0.07997   0.08778   0.09677   0.10598

 Mulliken charges:
               1
     1  C    0.269610
     2  O   -0.462069
     3  O   -0.494211
     4  O   -0.763054
     5  C   -0.370603
     6  H    0.208120
     7  H    0.219105
     8  H    0.223223
     9  H    0.600802
    10  H    0.573144
    11  C   -0.654819
    12  H    0.252887
    13  H    0.238257
    14  H    0.213577
    15  C   -0.386829
    16  H    0.219462
    17  H    0.206857
    18  H    0.215706
    19  I   -0.309165
 Sum of Mulliken charges =   0.00000

 Dipole moment (field-independent basis, Debye):
    X=             -6.9352    Y=              1.5687    Z=             -1.2141  Tot=              7.2133
 Quadrupole moment (field-independent basis, Debye-Ang):
   XX=            -58.6124   YY=            -65.1442   ZZ=            -75.9643
   XY=              4.5368   XZ=              3.4903   YZ=             -1.7463

  Exact polarizability: 131.486  -9.468 106.436  -4.582   2.775  89.927
 Approx polarizability: 193.333 -25.659 153.948 -22.421   9.420 148.078

 ******    1 imaginary frequencies (negative Signs) ******

                      1                      2                      3
                      A                      A                      A
 Frequencies --   -860.7414                47.8460                95.1973
 Red. masses --      1.3428                 4.5874                 2.8354
 Frc consts  --      0.5861                 0.0062                 0.0151
 IR Inten    --    487.7458                 2.3591                 0.3399

                      4                      5                      6
                      A                      A                      A
 Frequencies --    118.0631               129.3712               148.3398
 Red. masses --      1.4148                 2.6622                 2.4304
 Frc consts  --      0.0116                 0.0263                 0.0315
 IR Inten    --      4.6974                15.9013                 8.5600

                      7                      8                      9
                      A                      A                      A
 Frequencies --    182.3169               189.6474               236.4940
 Red. masses --      6.3804                 1.1625                 2.3118
 Frc consts  --      0.1250                 0.0246                 0.0762
 IR Inten    --     71.8528                 1.9768                 7.2813

                     10                     11                     12
                      A                      A                      A
 Frequencies --    245.0099               289.1715               301.7817
 Red. masses --      3.7420                 1.2425                 2.4751
 Frc consts  --      0.1323                 0.0612                 0.1328
 IR Inten    --      1.3286                 0.4777                 3.8978

                     13                     14                     15
                      A                      A                      A
 Frequencies --    336.8931               371.2197               514.3115
 Red. masses --      4.4170                 4.0503                 4.4013
 Frc consts  --      0.2954                 0.3288                 0.6859
 IR Inten    --    139.2856                30.2668                88.8116

                     16                     17                     18
                      A                      A                      A
 Frequencies --    579.5640               606.1856               632.6766
 Red. masses --      5.1977                 3.7084                 3.2712
 Frc consts  --      1.0286                 0.8029                 0.7715
 IR Inten    --    185.4041               130.2261               214.8584

                     19                     20                     21
                      A                      A                      A
 Frequencies --    961.9545              1008.9613              1040.8041
 Red. masses --      4.2415                 2.3862                 2.7976
 Frc consts  --      2.3125                 1.4312                 1.7855
 IR Inten    --    143.7441               254.4488                61.1849

                     22                     23                     24
                      A                      A                      A
 Frequencies --   1062.1161              1096.3951              1128.9380
 Red. masses --      1.9495                 1.5246                 1.5495
 Frc consts  --      1.2957                 1.0798                 1.1635
 IR Inten    --    250.9732               177.3731               110.8549

                     25                     26                     27
                      A                      A                      A
 Frequencies --   1166.7830              1175.2108              1196.7367
 Red. masses --      1.2127                 1.2829                 1.4208
 Frc consts  --      0.9727                 1.0440                 1.1989
 IR Inten    --     95.6637                13.7694               103.4352

                     28                     29                     30
                      A                      A                      A
 Frequencies --   1211.5197              1391.0746              1419.3543
 Red. masses --      1.2994                 1.4821                 1.2464
 Frc consts  --      1.1237                 1.6898                 1.4794
 IR Inten    --    208.7901               759.0264                38.2906

                     31                     32                     33
                      A                      A                      A
 Frequencies --   1466.9220              1479.0441              1495.9816
 Red. masses --      1.1065                 1.1381                 1.0758
 Frc consts  --      1.4029                 1.4669                 1.4186
 IR Inten    --    102.5899                13.5226                46.4333

                     34                     35                     36
                      A                      A                      A
 Frequencies --   1501.4199              1511.8133              1518.7326
 Red. masses --      1.0794                 1.0660                 1.0512
 Frc consts  --      1.4336                 1.4355                 1.4286
 IR Inten    --     22.7181                 8.2550                 4.5308

                     37                     38                     39
                      A                      A                      A
 Frequencies --   1521.4438              1531.1435              1548.7802
 Red. masses --      1.0585                 1.0804                 1.9944
 Frc consts  --      1.4436                 1.4923                 2.8187
 IR Inten    --     33.1714                25.6055               458.4362

                     40                     41                     42
                      A                      A                      A
 Frequencies --   1577.2445              1909.0576              2467.2994
 Red. masses --      1.1490                 1.1335                 1.0632
 Frc consts  --      1.6842                 2.4339                 3.8133
 IR Inten    --    808.7553               233.7422              1485.9916

                     43                     44                     45
                      A                      A                      A
 Frequencies --   3045.4609              3052.7371              3070.7716
 Red. masses --      1.0357                 1.0440                 1.0335
 Frc consts  --      5.6596                 5.7325                 5.7416
 IR Inten    --     22.6847                53.0542                23.5829

                     46                     47                     48
                      A                      A                      A
 Frequencies --   3127.4647              3139.8202              3151.3791
 Red. masses --      1.1006                 1.0890                 1.1066
 Frc consts  --      6.3427                 6.3253                 6.4750
 IR Inten    --     19.1985                 8.7866                20.4405

                     49                     50                     51
                      A                      A                      A
 Frequencies --   3154.6501              3175.2267              3180.6707
 Red. masses --      1.1029                 1.1046                 1.1089
 Frc consts  --      6.4670                 6.5615                 6.6099
 IR Inten    --     11.6145                 3.3784                 9.0214

 - Thermochemistry -
 -------------------
 Temperature   298.150 Kelvin.  Pressure   1.00000 Atm.
 Atom     1 has atomic number  6 and mass  12.00000

 Molecular mass:   233.97122 amu.
 Principal axes and moments of inertia in atomic units:
                           1         2         3
     Eigenvalues --  1154.309642730.774913285.42122
           X            0.99872   0.04760   0.01688
           Y           -0.04731   0.99874  -0.01686
           Z           -0.01766   0.01604   0.99972
 This molecule is an asymmetric top.
 Rotational symmetry number  1.
 Warning -- assumption of classical behavior for rotation
           may cause significant error
 Rotational temperatures (Kelvin)      0.07504     0.03172     0.02636
 Rotational constants (GHZ):           1.56348     0.66089     0.54932
    1 imaginary frequencies ignored.
 Zero-point vibrational energy     397824.1 (Joules/Mol)
                                   95.08225 (Kcal/Mol)
 Warning -- explicit consideration of  16 degrees of freedom as
           vibrations may cause significant error
 Vibrational temperatures:     68.84   136.97   169.87   186.14   213.43
          (Kelvin)            262.31   272.86   340.26   352.51   416.05
                              434.20   484.71   534.10   739.98   833.86
                              872.16   910.28  1384.04  1451.67  1497.48
                             1528.15  1577.47  1624.29  1678.74  1690.86
                             1721.84  1743.10  2001.44  2042.13  2110.57
                             2128.01  2152.38  2160.21  2175.16  2185.11
                             2189.02  2202.97  2228.35  2269.30  2746.70
                             3549.89  4381.73  4392.20  4418.15  4499.72
                             4517.50  4534.13  4538.83  4568.44  4576.27

 Zero-point correction=                           0.151523 (Hartree/Particle)
 Thermal correction to Energy=                    0.162701
 Thermal correction to Enthalpy=                  0.163645
 Thermal correction to Gibbs Free Energy=         0.113157
 Sum of electronic and zero-point Energies=           -682.323568
 Sum of electronic and thermal Energies=              -682.312390
 Sum of electronic and thermal Enthalpies=            -682.311446
 Sum of electronic and thermal Free Energies=         -682.361934

                     E (Thermal)             CV                S
                      KCal/Mol        Cal/Mol-Kelvin    Cal/Mol-Kelvin
 Total                  102.096             37.474            106.261
 Electronic               0.000              0.000              0.000
 Translational            0.889              2.981             42.252
 Rotational               0.889              2.981             30.716
 Vibrational            100.319             31.512             33.293
 Vibration     1          0.595              1.978              4.904
 Vibration     2          0.603              1.953              3.550
 Vibration     3          0.608              1.934              3.132
 Vibration     4          0.612              1.924              2.955
 Vibration     5          0.618              1.904              2.693
 Vibration     6          0.630              1.864              2.305
 Vibration     7          0.633              1.854              2.231
 Vibration     8          0.655              1.785              1.829
 Vibration     9          0.660              1.771              1.766
 Vibration    10          0.686              1.694              1.479
 Vibration    11          0.694              1.670              1.407
 Vibration    12          0.718              1.602              1.227
 Vibration    13          0.743              1.531              1.075
 Vibration    14          0.869              1.218              0.623
 Vibration    15          0.936              1.075              0.486
 Vibration    16          0.965              1.019              0.439

 Optimization completed.
    -- Stationary point found.
 Normal termination of Gaussian 09 at Wed Feb 25 15:42:17 2015.
