 Gaussian 09, Revision D.01,
 Gaussian 09:  EM64L-G09RevD.01 24-Apr-2013

 ----------------------------------------------------------------------
 # opt=(calcfc,ts,noeigentest) freq=noraman b3lyp/6-31+g(d) geom=connec
 tivity
 ----------------------------------------------------------------------

 -------------------
 Title Card Required
 -------------------
 Symbolic Z-matrix:
 Charge =  0 Multiplicity = 1

 SCF Done:  E(RB3LYP) =  -2956.39075142     A.U. after   14 cycles
 SCF Done:  E(RB3LYP) =  -2956.39954945     A.U. after   12 cycles
 SCF Done:  E(RB3LYP) =  -2956.40537139     A.U. after   12 cycles
 SCF Done:  E(RB3LYP) =  -2956.40696439     A.U. after   13 cycles
 SCF Done:  E(RB3LYP) =  -2956.40650740     A.U. after   12 cycles
 SCF Done:  E(RB3LYP) =  -2956.40757708     A.U. after   12 cycles
 SCF Done:  E(RB3LYP) =  -2956.40762575     A.U. after   11 cycles
 SCF Done:  E(RB3LYP) =  -2956.40438049     A.U. after   14 cycles
 SCF Done:  E(RB3LYP) =  -2956.39821520     A.U. after   15 cycles
 SCF Done:  E(RB3LYP) =  -2956.40387937     A.U. after   14 cycles
 SCF Done:  E(RB3LYP) =  -2956.40825649     A.U. after   11 cycles
 SCF Done:  E(RB3LYP) =  -2956.40791787     A.U. after   11 cycles
 SCF Done:  E(RB3LYP) =  -2956.40828220     A.U. after   11 cycles
 SCF Done:  E(RB3LYP) =  -2956.40829898     A.U. after   10 cycles
 SCF Done:  E(RB3LYP) =  -2956.40830064     A.U. after    9 cycles
 SCF Done:  E(RB3LYP) =  -2956.40830089     A.U. after    8 cycles
 SCF Done:  E(RB3LYP) =  -2956.40830106     A.U. after    8 cycles
 SCF Done:  E(RB3LYP) =  -2956.40830098     A.U. after    9 cycles
 SCF Done:  E(RB3LYP) =  -2956.40830165     A.U. after    9 cycles
 Optimization completed.
    -- Stationary point found.
 Normal termination of Gaussian 09 at Mon Feb  2 12:04:50 2015.

 ---------------------------------------------------------------------
 #N Geom=AllCheck Guess=TCheck SCRF=Check GenChk RB3LYP/6-31+G(d) Freq
 ---------------------------------------------------------------------

 Structure from the checkpoint file:  "/lustre/SCRATCH5/gau/Gau-14356.chk"
 -------------------
 Title Card Required
 -------------------
 Charge =  0 Multiplicity = 1

                         Standard orientation:
 ---------------------------------------------------------------------
 Center     Atomic      Atomic             Coordinates (Angstroms)
 Number     Number       Type             X           Y           Z
 ---------------------------------------------------------------------
      1          6           0        0.276806    0.646967    0.530115
      2          8           0       -0.420098    0.208595    1.490021
      3          8           0       -0.613931    0.753077   -0.816855
      4          8           0       -1.806688   -1.172547    0.006664
      5          6           0       -3.241981   -1.177978    0.155585
      6          1           0       -3.675023   -1.374966   -0.826706
      7          1           0       -3.505792   -1.984995    0.841851
      8          1           0       -3.600107   -0.219837    0.547011
      9          1           0       -1.364404   -0.314528   -0.609926
     10          1           0       -1.300475   -0.822184    0.873800
     11          6           0        1.064014    1.929579    0.690003
     12          1           0        1.829607    1.756489    1.450149
     13          1           0        1.549664    2.221864   -0.242964
     14          1           0        0.402218    2.727999    1.045799
     15          6           0       -1.424032    1.936045   -0.904033
     16          1           0       -0.795579    2.797164   -1.146811
     17          1           0       -2.136720    1.778926   -1.719123
     18          1           0       -1.965186    2.122677    0.032388
     19         35           0        1.635391   -0.771694   -0.243261
 ---------------------------------------------------------------------

 SCF Done:  E(RB3LYP) =  -2956.40830165     A.U. after    1 cycles

 The electronic state is 1-A.
 Alpha  occ. eigenvalues -- -482.87569 -61.83590 -56.35196 -56.34894 -56.34875
 Alpha  occ. eigenvalues --  -19.22816 -19.19995 -19.13893 -10.33981 -10.27705
 Alpha  occ. eigenvalues --  -10.25912 -10.19549  -8.54107  -6.49147  -6.48167
 Alpha  occ. eigenvalues --   -6.48127  -2.60725  -2.60463  -2.60429  -2.59651
 Alpha  occ. eigenvalues --   -2.59650  -1.10705  -1.05982  -1.01473  -0.76768
 Alpha  occ. eigenvalues --   -0.74703  -0.71857  -0.70257  -0.57722  -0.57438
 Alpha  occ. eigenvalues --   -0.56140  -0.49723  -0.49255  -0.48043  -0.47642
 Alpha  occ. eigenvalues --   -0.44890  -0.43269  -0.42671  -0.41423  -0.38499
 Alpha  occ. eigenvalues --   -0.37898  -0.36317  -0.31660  -0.28936  -0.26562
 Alpha  occ. eigenvalues --   -0.25381  -0.24621
 Alpha virt. eigenvalues --   -0.01369  -0.01193   0.00706   0.00920   0.02436
 Alpha virt. eigenvalues --    0.03016   0.03937   0.04696   0.05606   0.06274
 Alpha virt. eigenvalues --    0.07042   0.07751   0.08208   0.08580   0.09311

 Mulliken charges:
               1
     1  C   -0.085325
     2  O   -0.425991
     3  O   -0.467207
     4  O   -0.742405
     5  C   -0.364554
     6  H    0.218938
     7  H    0.222819
     8  H    0.208241
     9  H    0.598885
    10  H    0.565179
    11  C   -0.607899
    12  H    0.252897
    13  H    0.240697
    14  H    0.217060
    15  C   -0.386291
    16  H    0.219847
    17  H    0.208065
    18  H    0.218496
    19  Br  -0.091453
 Sum of Mulliken charges =   0.00000

 Dipole moment (field-independent basis, Debye):
    X=             -5.7786    Y=              2.4683    Z=             -0.9156  Tot=              6.3500
 Quadrupole moment (field-independent basis, Debye-Ang):
   XX=            -52.1330   YY=            -58.5765   ZZ=            -67.7332
   XY=              4.8176   XZ=              2.4108   YZ=             -1.8279

  Exact polarizability: 105.432  -5.729  94.226  -2.519   2.496  78.851
 Approx polarizability: 138.358 -15.010 129.117 -12.448   7.843 123.697

 ******    1 imaginary frequencies (negative Signs) ******

                      1                      2                      3
                      A                      A                      A
 Frequencies --   -903.0479                48.8576                99.3292
 Red. masses --      1.3305                 4.6920                 2.6791
 Frc consts  --      0.6393                 0.0066                 0.0156
 IR Inten    --    470.8557                 2.8800                 0.1485

                      4                      5                      6
                      A                      A                      A
 Frequencies --    110.3438               136.8165               160.6942
 Red. masses --      1.1493                 2.8056                 3.5699
 Frc consts  --      0.0082                 0.0309                 0.0543
 IR Inten    --      0.6280                10.4188                 6.7633

                      7                      8                      9
                      A                      A                      A
 Frequencies --    179.3127               233.2638               251.5948
 Red. masses --      1.0862                 3.8849                 3.8886
 Frc consts  --      0.0206                 0.1245                 0.1450
 IR Inten    --      0.0862                51.0486                36.9578

                     10                     11                     12
                      A                      A                      A
 Frequencies --    264.5800               304.9008               308.3722
 Red. masses --      4.2730                 1.5423                 1.8251
 Frc consts  --      0.1762                 0.0845                 0.1023
 IR Inten    --      3.8240                 2.3737                 1.7421

                     13                     14                     15
                      A                      A                      A
 Frequencies --    343.6855               380.8106               509.3128
 Red. masses --      4.4334                 4.3381                 4.4258
 Frc consts  --      0.3085                 0.3707                 0.6764
 IR Inten    --     99.8282                33.9368               121.8213

                     16                     17                     18
                      A                      A                      A
 Frequencies --    581.8281               623.0791               643.1000
 Red. masses --      5.1957                 3.7625                 3.2121
 Frc consts  --      1.0363                 0.8606                 0.7827
 IR Inten    --    189.1432                53.3659               231.3161

                     19                     20                     21
                      A                      A                      A
 Frequencies --    971.2528              1020.3420              1047.5041
 Red. masses --      4.1694                 2.4503                 3.3001
 Frc consts  --      2.3173                 1.5030                 2.1335
 IR Inten    --    137.6249               236.1008                44.9481

                     22                     23                     24
                      A                      A                      A
 Frequencies --   1070.5821              1108.6132              1133.1900
 Red. masses --      1.7498                 1.5093                 1.5555
 Frc consts  --      1.1816                 1.0929                 1.1769
 IR Inten    --    203.1973               168.5733                93.1861

                     25                     26                     27
                      A                      A                      A
 Frequencies --   1169.1172              1177.0103              1197.7331
 Red. masses --      1.2235                 1.2857                 1.4477
 Frc consts  --      0.9853                 1.0494                 1.2236
 IR Inten    --     87.9299                12.9769                71.6356

                     28                     29                     30
                      A                      A                      A
 Frequencies --   1213.6272              1388.3930              1422.8490
 Red. masses --      1.2876                 1.5012                 1.2538
 Frc consts  --      1.1174                 1.7050                 1.4955
 IR Inten    --    251.1638               840.9986                65.1317

                     31                     32                     33
                      A                      A                      A
 Frequencies --   1464.1709              1478.0752              1501.7934
 Red. masses --      1.1051                 1.1455                 1.1012
 Frc consts  --      1.3958                 1.4745                 1.4633
 IR Inten    --    117.6978                14.2845                74.7370

                     34                     35                     36
                      A                      A                      A
 Frequencies --   1504.1499              1512.4281              1518.3895
 Red. masses --      1.0775                 1.0611                 1.0497
 Frc consts  --      1.4363                 1.4300                 1.4259
 IR Inten    --     17.3432                 5.3682                14.2544

                     37                     38                     39
                      A                      A                      A
 Frequencies --   1521.3558              1530.9620              1544.8072
 Red. masses --      1.0600                 1.0764                 1.8046
 Frc consts  --      1.4455                 1.4865                 2.5374
 IR Inten    --     17.6212                22.9236               440.9641

                     40                     41                     42
                      A                      A                      A
 Frequencies --   1583.0819              1896.1125              2397.7266
 Red. masses --      1.1728                 1.1456                 1.0610
 Frc consts  --      1.7318                 2.4268                 3.5939
 IR Inten    --    766.4138               278.4834              1439.0441

                     43                     44                     45
                      A                      A                      A
 Frequencies --   3040.9876              3063.1749              3068.3085
 Red. masses --      1.0343                 1.0402                 1.0333
 Frc consts  --      5.6356                 5.7506                 5.7318
 IR Inten    --     39.1019                21.7957                25.7543

                     46                     47                     48
                      A                      A                      A
 Frequencies --   3120.0583              3140.4134              3143.7455
 Red. masses --      1.1003                 1.0984                 1.1033
 Frc consts  --      6.3106                 6.3824                 6.4247
 IR Inten    --     21.8448                14.6650                17.4185

                     49                     50                     51
                      A                      A                      A
 Frequencies --   3151.1074              3171.0171              3176.9066
 Red. masses --      1.1028                 1.1043                 1.1088
 Frc consts  --      6.4515                 6.5426                 6.5934
 IR Inten    --     14.9125                 4.5880                10.0892

 - Thermochemistry -
 -------------------
 Temperature   298.150 Kelvin.  Pressure   1.00000 Atm.
 Atom     1 has atomic number  6 and mass  12.00000

 Molecular mass:   185.98916 amu.
 Principal axes and moments of inertia in atomic units:
                           1         2         3
     Eigenvalues --  1090.493902043.550842561.30233
           X            0.99676   0.07818   0.01867
           Y           -0.07771   0.99668  -0.02448
           Z           -0.02052   0.02295   0.99953
 This molecule is an asymmetric top.
 Rotational symmetry number  1.
 Warning -- assumption of classical behavior for rotation
           may cause significant error
 Rotational temperatures (Kelvin)      0.07943     0.04238     0.03382
 Rotational constants (GHZ):           1.65498     0.88314     0.70462
    1 imaginary frequencies ignored.
 Zero-point vibrational energy     398529.1 (Joules/Mol)
                                   95.25075 (Kcal/Mol)
 Warning -- explicit consideration of  15 degrees of freedom as
           vibrations may cause significant error
 Vibrational temperatures:     70.30   142.91   158.76   196.85   231.20
          (Kelvin)            257.99   335.61   361.99   380.67   438.68
                              443.68   494.49   547.90   732.79   837.12
                              896.47   925.28  1397.41  1468.04  1507.12
                             1540.33  1595.05  1630.41  1682.10  1693.45
                             1723.27  1746.14  1997.59  2047.16  2106.61
                             2126.62  2160.74  2164.13  2176.04  2184.62
                             2188.89  2202.71  2222.63  2277.70  2728.08
                             3449.79  4375.30  4407.22  4414.61  4489.06
                             4518.35  4523.14  4533.74  4562.38  4570.85

 Zero-point correction=                           0.151792 (Hartree/Particle)
 Thermal correction to Energy=                    0.162764
 Thermal correction to Enthalpy=                  0.163709
 Thermal correction to Gibbs Free Energy=         0.114346
 Sum of electronic and zero-point Energies=          -2956.256510
 Sum of electronic and thermal Energies=             -2956.245537
 Sum of electronic and thermal Enthalpies=           -2956.244593
 Sum of electronic and thermal Free Energies=        -2956.293956

                     E (Thermal)             CV                S
                      KCal/Mol        Cal/Mol-Kelvin    Cal/Mol-Kelvin
 Total                  102.136             37.155            103.892
 Electronic               0.000              0.000              0.000
 Translational            0.889              2.981             41.568
 Rotational               0.889              2.981             30.124
 Vibrational            100.359             31.193             32.200
 Vibration     1          0.595              1.978              4.863
 Vibration     2          0.604              1.950              3.467
 Vibration     3          0.606              1.941              3.263
 Vibration     4          0.614              1.917              2.848
 Vibration     5          0.622              1.891              2.542
 Vibration     6          0.629              1.868              2.336
 Vibration     7          0.654              1.790              1.854
 Vibration     8          0.664              1.760              1.719
 Vibration     9          0.671              1.738              1.631
 Vibration    10          0.696              1.664              1.390
 Vibration    11          0.698              1.658              1.371
 Vibration    12          0.722              1.588              1.195
 Vibration    13          0.751              1.511              1.036
 Vibration    14          0.864              1.229              0.635
 Vibration    15          0.939              1.071              0.482

 Optimization completed.
    -- Stationary point found.
 Normal termination of Gaussian 09 at Mon Feb  2 12:07:08 2015.
