 Gaussian 09, Revision D.01,
 Gaussian 09:  EM64L-G09RevD.01 24-Apr-2013

 ----------------------------------------------------------------------
 # opt=(calcfc,ts,noeigentest) freq=noraman b3lyp/6-31+g(d) geom=connec
 tivity
 ----------------------------------------------------------------------

 -------------------
 Title Card Required
 -------------------
 Symbolic Z-matrix:
 Charge =  0 Multiplicity = 1

 SCF Done:  E(RB3LYP) =  -844.864306693     A.U. after   14 cycles
 SCF Done:  E(RB3LYP) =  -844.876243555     A.U. after   12 cycles
 SCF Done:  E(RB3LYP) =  -844.878622343     A.U. after   12 cycles
 SCF Done:  E(RB3LYP) =  -844.878836323     A.U. after   11 cycles
 SCF Done:  E(RB3LYP) =  -844.878815142     A.U. after   11 cycles
 SCF Done:  E(RB3LYP) =  -844.877909999     A.U. after   11 cycles
 SCF Done:  E(RB3LYP) =  -844.878782106     A.U. after   11 cycles
 SCF Done:  E(RB3LYP) =  -844.878889143     A.U. after   11 cycles
 SCF Done:  E(RB3LYP) =  -844.878894499     A.U. after   10 cycles
 SCF Done:  E(RB3LYP) =  -844.878894601     A.U. after    8 cycles
 SCF Done:  E(RB3LYP) =  -844.878894237     A.U. after    8 cycles
 SCF Done:  E(RB3LYP) =  -844.878443275     A.U. after   11 cycles
 SCF Done:  E(RB3LYP) =  -844.878795433     A.U. after   11 cycles
 SCF Done:  E(RB3LYP) =  -844.878816761     A.U. after   11 cycles
 SCF Done:  E(RB3LYP) =  -844.878891154     A.U. after   10 cycles
 SCF Done:  E(RB3LYP) =  -844.878893977     A.U. after    9 cycles
 SCF Done:  E(RB3LYP) =  -844.878894310     A.U. after    9 cycles
 SCF Done:  E(RB3LYP) =  -844.878894325     A.U. after    7 cycles
 Optimization completed.
    -- Stationary point found.
 Normal termination of Gaussian 09 at Wed Feb 11 13:33:20 2015.

 ---------------------------------------------------------------------
 #N Geom=AllCheck Guess=TCheck SCRF=Check GenChk RB3LYP/6-31+G(d) Freq
 ---------------------------------------------------------------------

 Structure from the checkpoint file:  "/lustre/SCRATCH5/gau/Gau-9649.chk"
 -------------------
 Title Card Required
 -------------------
 Charge =  0 Multiplicity = 1

                         Standard orientation:
 ---------------------------------------------------------------------
 Center     Atomic      Atomic             Coordinates (Angstroms)
 Number     Number       Type             X           Y           Z
 ---------------------------------------------------------------------
      1          6           0        0.820136    0.122804    0.430466
      2          6           0       -0.479031    2.076340   -0.647111
      3          1           0       -1.251490    2.270033   -1.397461
      4          1           0       -0.879258    2.270214    0.356334
      5          1           0        0.372300    2.734597   -0.840186
      6          6           0        1.956998    1.088669    0.695332
      7          1           0        2.667923    0.588593    1.357930
      8          1           0        2.469916    1.373971   -0.225435
      9          1           0        1.575097    1.975753    1.211860
     10          8           0       -0.076435    0.706303   -0.798043
     11          8           0       -1.766807   -0.864170   -0.108546
     12          6           0       -3.109544   -0.439391    0.202054
     13          1           0       -3.650323   -0.329969   -0.739944
     14          1           0       -3.579684   -1.218478    0.805669
     15          1           0       -3.105244    0.507909    0.752162
     16          1           0       -1.114379   -0.823681    0.738162
     17          1           0       -1.103365   -0.092084   -0.651830
     18         17           0        1.571028   -1.368559   -0.545571
     19          8           0        0.063204   -0.227369    1.384463
 ---------------------------------------------------------------------

 SCF Done:  E(RB3LYP) =  -844.878894325     A.U. after    1 cycles

 The electronic state is 1-A.
 Alpha  occ. eigenvalues -- -101.50047 -19.22201 -19.19821 -19.13453 -10.34335
 Alpha  occ. eigenvalues --  -10.27352 -10.25826 -10.19498  -9.41663  -7.17953
 Alpha  occ. eigenvalues --   -7.17148  -7.17115  -1.10234  -1.05636  -1.01269
 Alpha  occ. eigenvalues --   -0.79751  -0.74670  -0.73185  -0.70923  -0.57571
 Alpha  occ. eigenvalues --   -0.56989  -0.55954  -0.49800  -0.48967  -0.47873
 Alpha  occ. eigenvalues --   -0.47424  -0.44940  -0.43313  -0.42477  -0.41306
 Alpha  occ. eigenvalues --   -0.38689  -0.37980  -0.36327  -0.31528  -0.29329
 Alpha  occ. eigenvalues --   -0.27983  -0.27716  -0.26395
 Alpha virt. eigenvalues --   -0.01123   0.00657   0.00914   0.01138   0.02738
 Alpha virt. eigenvalues --    0.03234   0.04146   0.04926   0.06146   0.06593
 Alpha virt. eigenvalues --    0.07325   0.07941   0.09058   0.09139   0.10981

 Mulliken charges:
               1
     1  C   -0.219812
     2  C   -0.361409
     3  H    0.205948
     4  H    0.217968
     5  H    0.217343
     6  C   -0.591217
     7  H    0.249910
     8  H    0.239579
     9  H    0.218973
    10  O   -0.463282
    11  O   -0.752523
    12  C   -0.368931
    13  H    0.216807
    14  H    0.221123
    15  H    0.206777
    16  H    0.568076
    17  H    0.601824
    18  Cl   0.031328
    19  O   -0.438483
 Sum of Mulliken charges =   0.00000

 Dipole moment (field-independent basis, Debye):
    X=             -4.3674    Y=              4.0805    Z=             -0.1202  Tot=              5.9782
 Quadrupole moment (field-independent basis, Debye-Ang):
   XX=            -47.0084   YY=            -56.6431   ZZ=            -62.4169
   XY=              3.9353   XZ=              1.4755   YZ=             -1.8702

  Exact polarizability:  92.363  -4.012  85.627  -2.039   3.207  72.488
 Approx polarizability: 112.496  -8.303 114.999  -7.880   7.714 110.822

 ******    1 imaginary frequencies (negative Signs) ******

                      1                      2                      3
                      A                      A                      A
 Frequencies --   -975.9637                59.8095               105.0533
 Red. masses --      1.2841                 4.5924                 2.7183
 Frc consts  --      0.7206                 0.0097                 0.0177
 IR Inten    --    493.6509                 2.7588                 0.2950

                      4                      5                      6
                      A                      A                      A
 Frequencies --    123.3327               145.0216               179.5224
 Red. masses --      1.1865                 2.5067                 4.0263
 Frc consts  --      0.0106                 0.0311                 0.0765
 IR Inten    --      0.9384                10.7872                 4.0925

                      7                      8                      9
                      A                      A                      A
 Frequencies --    192.4772               238.9621               271.9565
 Red. masses --      1.0929                 2.3127                 2.0050
 Frc consts  --      0.0239                 0.0778                 0.0874
 IR Inten    --      0.1749                20.0815                56.2024

                     10                     11                     12
                      A                      A                      A
 Frequencies --    288.4719               310.2147               318.9630
 Red. masses --      1.9070                 3.5258                 4.7953
 Frc consts  --      0.0935                 0.1999                 0.2874
 IR Inten    --      2.1742                63.5606                57.6448

                     13                     14                     15
                      A                      A                      A
 Frequencies --    351.6578               402.1342               518.4989
 Red. masses --      4.4531                 5.2256                 4.4587
 Frc consts  --      0.3245                 0.4979                 0.7062
 IR Inten    --     32.9089                48.8090               122.5730

                     16                     17                     18
                      A                      A                      A
 Frequencies --    579.2463               626.1705               639.5201
 Red. masses --      5.0533                 4.1095                 3.4170
 Frc consts  --      0.9990                 0.9493                 0.8234
 IR Inten    --    193.7783                69.0915               225.3203

                     19                     20                     21
                      A                      A                      A
 Frequencies --    969.1283              1022.6306              1050.5460
 Red. masses --      3.8593                 2.3779                 3.2229
 Frc consts  --      2.1356                 1.4652                 2.0957
 IR Inten    --    144.0366               280.4101                63.9765

                     22                     23                     24
                      A                      A                      A
 Frequencies --   1072.7909              1111.0351              1131.8998
 Red. masses --      1.7548                 1.5299                 1.6595
 Frc consts  --      1.1899                 1.1127                 1.2527
 IR Inten    --    211.7598               167.1759               117.4873

                     25                     26                     27
                      A                      A                      A
 Frequencies --   1171.0580              1180.1147              1199.4871
 Red. masses --      1.2162                 1.2941                 1.4393
 Frc consts  --      0.9827                 1.0619                 1.2201
 IR Inten    --    105.4585                 6.6288                82.3125

                     28                     29                     30
                      A                      A                      A
 Frequencies --   1211.9221              1381.5889              1423.1625
 Red. masses --      1.2919                 1.5276                 1.2576
 Frc consts  --      1.1180                 1.7179                 1.5007
 IR Inten    --    200.5235               996.0984                76.3674

                     31                     32                     33
                      A                      A                      A
 Frequencies --   1468.2131              1479.6143              1499.1318
 Red. masses --      1.1074                 1.1523                 1.0822
 Frc consts  --      1.4065                 1.4864                 1.4330
 IR Inten    --     88.8157                 9.2778                49.0111

                     34                     35                     36
                      A                      A                      A
 Frequencies --   1502.1511              1512.5713              1519.3270
 Red. masses --      1.0896                 1.0605                 1.0527
 Frc consts  --      1.4486                 1.4296                 1.4317
 IR Inten    --     33.3980                 8.1774                 8.2481

                     37                     38                     39
                      A                      A                      A
 Frequencies --   1522.2379              1532.2333              1545.6467
 Red. masses --      1.0583                 1.1000                 1.6764
 Frc consts  --      1.4448                 1.5216                 2.3596
 IR Inten    --     28.8758                40.4642               413.3090

                     40                     41                     42
                      A                      A                      A
 Frequencies --   1577.1825              1879.5529              2340.7968
 Red. masses --      1.1725                 1.1556                 1.0573
 Frc consts  --      1.7184                 2.4052                 3.4134
 IR Inten    --    673.2936               347.6005              1410.1662

                     43                     44                     45
                      A                      A                      A
 Frequencies --   3040.6717              3065.9319              3071.5717
 Red. masses --      1.0343                 1.0334                 1.0369
 Frc consts  --      5.6345                 5.7233                 5.7635
 IR Inten    --     38.4105                25.0412                15.3446

                     46                     47                     48
                      A                      A                      A
 Frequencies --   3119.0395              3141.4106              3146.2468
 Red. masses --      1.1004                 1.1053                 1.1004
 Frc consts  --      6.3074                 6.4265                 6.4179
 IR Inten    --     22.3498                23.8127                12.3060

                     49                     50                     51
                      A                      A                      A
 Frequencies --   3147.6736              3168.6041              3173.0429
 Red. masses --      1.1027                 1.1045                 1.1086
 Frc consts  --      6.4368                 6.5337                 6.5765
 IR Inten    --     14.7757                 6.5399                11.4580

 - Thermochemistry -
 -------------------
 Temperature   298.150 Kelvin.  Pressure   1.00000 Atm.
 Atom     1 has atomic number  6 and mass  12.00000

 Molecular mass:   142.03967 amu.
 Principal axes and moments of inertia in atomic units:
                           1         2         3
     Eigenvalues --   906.434551570.980601950.62329
           X            0.99824   0.05775   0.01319
           Y           -0.05735   0.99793  -0.02907
           Z           -0.01485   0.02826   0.99949
 This molecule is an asymmetric top.
 Rotational symmetry number  1.
 Warning -- assumption of classical behavior for rotation
           may cause significant error
 Rotational temperatures (Kelvin)      0.09555     0.05513     0.04440
 Rotational constants (GHZ):           1.99103     1.14880     0.92521
    1 imaginary frequencies ignored.
 Zero-point vibrational energy     399129.4 (Joules/Mol)
                                   95.39422 (Kcal/Mol)
 Warning -- explicit consideration of  15 degrees of freedom as
           vibrations may cause significant error
 Vibrational temperatures:     86.05   151.15   177.45   208.65   258.29
          (Kelvin)            276.93   343.81   391.28   415.05   446.33
                              458.92   505.96   578.58   746.00   833.41
                              900.92   920.13  1394.36  1471.34  1511.50
                             1543.50  1598.53  1628.55  1684.89  1697.92
                             1725.79  1743.68  1987.80  2047.61  2112.43
                             2128.83  2156.91  2161.26  2176.25  2185.97
                             2190.16  2204.54  2223.84  2269.21  2704.25
                             3367.88  4374.84  4411.19  4419.30  4487.60
                             4519.78  4526.74  4528.79  4558.91  4565.30

 Zero-point correction=                           0.152020 (Hartree/Particle)
 Thermal correction to Energy=                    0.162745
 Thermal correction to Enthalpy=                  0.163690
 Thermal correction to Gibbs Free Energy=         0.115868
 Sum of electronic and zero-point Energies=           -844.726874
 Sum of electronic and thermal Energies=              -844.716149
 Sum of electronic and thermal Enthalpies=            -844.715205
 Sum of electronic and thermal Free Energies=         -844.763027

                     E (Thermal)             CV                S
                      KCal/Mol        Cal/Mol-Kelvin    Cal/Mol-Kelvin
 Total                  102.124             36.887            100.650
 Electronic               0.000              0.000              0.000
 Translational            0.889              2.981             40.764
 Rotational               0.889              2.981             29.409
 Vibrational            100.347             30.925             30.477
 Vibration     1          0.597              1.973              4.463
 Vibration     2          0.605              1.945              3.358
 Vibration     3          0.610              1.930              3.047
 Vibration     4          0.616              1.908              2.737
 Vibration     5          0.629              1.867              2.333
 Vibration     6          0.634              1.850              2.204
 Vibration     7          0.657              1.781              1.811
 Vibration     8          0.675              1.725              1.584
 Vibration     9          0.685              1.695              1.483
 Vibration    10          0.699              1.654              1.361
 Vibration    11          0.705              1.637              1.315
 Vibration    12          0.728              1.572              1.159
 Vibration    13          0.768              1.466              0.955
 Vibration    14          0.873              1.209              0.613
 Vibration    15          0.936              1.076              0.487

 Optimization completed.
    -- Stationary point found.
 Normal termination of Gaussian 09 at Wed Feb 11 13:35:09 2015.
