 Gaussian 09, Revision D.01,
 Gaussian 09:  EM64L-G09RevD.01 24-Apr-2013

 ----------------------------------------------------------------------
 # opt=(calcfc,ts,noeigentest) freq=noraman b3lyp/gen pseudo=read gfinp
 ut geom=connectivity
 ----------------------------------------------------------------------

 --------------------
 gen calculation-ts624I C H O=6-31+g(d)/I=midix
 --------------------
 Symbolic Z-matrix:
 Charge =  0 Multiplicity = 1

 SCF Done:  E(RB3LYP) =  -7274.64612954     A.U. after   16 cycles
 SCF Done:  E(RB3LYP) =  -7274.70194508     A.U. after   15 cycles
 SCF Done:  E(RB3LYP) =  -7274.75012104     A.U. after   15 cycles
 SCF Done:  E(RB3LYP) =  -7274.77149381     A.U. after   12 cycles
 SCF Done:  E(RB3LYP) =  -7274.78563791     A.U. after   12 cycles
 SCF Done:  E(RB3LYP) =  -7274.79816758     A.U. after   14 cycles
 SCF Done:  E(RB3LYP) =  -7274.80270360     A.U. after   14 cycles
 SCF Done:  E(RB3LYP) =  -7274.80780069     A.U. after   15 cycles
 SCF Done:  E(RB3LYP) =  -7274.80984367     A.U. after   14 cycles
 SCF Done:  E(RB3LYP) =  -7274.80654822     A.U. after   14 cycles
 SCF Done:  E(RB3LYP) =  -7274.81568878     A.U. after    8 cycles
 SCF Done:  E(RB3LYP) =  -7274.81568841     A.U. after    9 cycles
 SCF Done:  E(RB3LYP) =  -7274.81568918     A.U. after    9 cycles
 SCF Done:  E(RB3LYP) =  -7274.81568934     A.U. after    8 cycles
 SCF Done:  E(RB3LYP) =  -7274.81568945     A.U. after    8 cycles
 SCF Done:  E(RB3LYP) =  -7274.81568953     A.U. after    8 cycles
 SCF Done:  E(RB3LYP) =  -7274.81568964     A.U. after    8 cycles
 SCF Done:  E(RB3LYP) =  -7274.81568972     A.U. after    7 cycles
 SCF Done:  E(RB3LYP) =  -7274.81568981     A.U. after    7 cycles
 Optimization completed.
    -- Stationary point found.
 Normal termination of Gaussian 09 at Mon Feb 23 13:48:07 2015.

 ------------------------------------------------------------------
 #N Geom=AllCheck Guess=TCheck SCRF=Check GenChk RB3LYP/ChkBas Freq
 ------------------------------------------------------------------

 Structure from the checkpoint file:  "/lustre/SCRATCH5/gau/Gau-14524.chk"
 --------------------
 gen calculation-ts624I C H O=6-31+g(d)/I=midix
 --------------------
 Charge =  0 Multiplicity = 1

                         Standard orientation:
 ---------------------------------------------------------------------
 Center     Atomic      Atomic             Coordinates (Angstroms)
 Number     Number       Type             X           Y           Z
 ---------------------------------------------------------------------
      1          6           0       -0.243054    0.824295    0.546460
      2          8           0       -0.893400    0.293096    1.497840
      3          8           0       -1.075799    0.691228   -0.836706
      4          8           0       -1.939182   -1.372154    0.047817
      5          6           0       -3.356033   -1.622410    0.143120
      6          1           0       -3.894539   -0.723993    0.464290
      7          1           0       -3.703821   -1.942258   -0.841067
      8          1           0       -3.509871   -2.427112    0.865026
      9          1           0       -1.623508   -0.470523   -0.598609
     10          1           0       -1.542265   -0.887674    0.914339
     11          6           0        0.228265    2.257483    0.692754
     12          1           0        0.965172    2.286955    1.498929
     13          1           0        0.689690    2.634312   -0.222335
     14          1           0       -0.617690    2.892634    0.983782
     15          6           0       -2.089967    1.692616   -1.031219
     16          1           0       -1.622177    2.641495   -1.306298
     17          1           0       -2.718217    1.354879   -1.860779
     18          1           0       -2.702137    1.825824   -0.130375
     19         53           0        1.590776   -0.433845   -0.142362
 ---------------------------------------------------------------------

 SCF Done:  E(RB3LYP) =  -7274.81568981     A.U. after    1 cycles

 The electronic state is 1-A.
 Alpha  occ. eigenvalues -- **********-175.62510-164.40195-164.40023-164.40011
 Alpha  occ. eigenvalues --  -35.73868 -30.90689 -30.90301 -30.90289 -22.85484
 Alpha  occ. eigenvalues --  -22.85310 -22.85300 -22.84971 -22.84966 -19.21544
 Alpha  occ. eigenvalues --  -19.19575 -19.13437 -10.32952 -10.26712 -10.25234
 Alpha  occ. eigenvalues --  -10.18828  -6.33267  -4.63824  -4.62772  -4.62727
 Alpha  occ. eigenvalues --   -2.01440  -2.01123  -2.01078  -2.00164  -2.00162
 Alpha  occ. eigenvalues --   -1.10365  -1.05694  -1.01328  -0.75723  -0.74187
 Alpha  occ. eigenvalues --   -0.71372  -0.62084  -0.57398  -0.57093  -0.55548
 Alpha  occ. eigenvalues --   -0.49376  -0.48970  -0.47858  -0.47412  -0.44602
 Alpha  occ. eigenvalues --   -0.42970  -0.42466  -0.41385  -0.38306  -0.37460
 Alpha  occ. eigenvalues --   -0.35791  -0.31574  -0.28774  -0.24769  -0.22770
 Alpha  occ. eigenvalues --   -0.22236
 Alpha virt. eigenvalues --   -0.03014  -0.01192   0.00831   0.01232   0.02496
 Alpha virt. eigenvalues --    0.03172   0.04122   0.04945   0.06466   0.07249
 Alpha virt. eigenvalues --    0.07971   0.08188   0.09046   0.09863   0.10916

 Mulliken charges:
               1
     1  C    0.010854
     2  O   -0.466533
     3  O   -0.495313
     4  O   -0.760354
     5  C   -0.363533
     6  H    0.204694
     7  H    0.215604
     8  H    0.219818
     9  H    0.602793
    10  H    0.571240
    11  C   -0.612776
    12  H    0.248804
    13  H    0.235594
    14  H    0.214303
    15  C   -0.408559
    16  H    0.216640
    17  H    0.204565
    18  H    0.216555
    19  I   -0.054395
 Sum of Mulliken charges =   0.00000

 Dipole moment (field-independent basis, Debye):
    X=             -5.7597    Y=              1.2864    Z=             -1.3851  Tot=              6.0620
 Quadrupole moment (field-independent basis, Debye-Ang):
   XX=            -59.7031   YY=            -67.0450   ZZ=            -77.9539
   XY=              3.6231   XZ=              2.9847   YZ=             -1.4821

  Exact polarizability: 120.008  -6.878 100.289  -2.614   1.944  84.270
 Approx polarizability: 171.825 -22.563 138.763 -18.503   8.105 132.973

 ******    1 imaginary frequencies (negative Signs) ******

                      1                      2                      3
                      A                      A                      A
 Frequencies --   -960.8467                52.2297               101.2003
 Red. masses --      1.2853                 4.5785                 2.8048
 Frc consts  --      0.6991                 0.0074                 0.0169
 IR Inten    --    440.1111                 2.8532                 0.7994

                      4                      5                      6
                      A                      A                      A
 Frequencies --    119.8704               136.8446               154.6208
 Red. masses --      1.1642                 3.2708                 2.8993
 Frc consts  --      0.0099                 0.0361                 0.0408
 IR Inten    --      0.9966                 9.1475                 8.2863

                      7                      8                      9
                      A                      A                      A
 Frequencies --    196.4453               210.0682               238.5958
 Red. masses --      1.1699                 7.0773                 2.1440
 Frc consts  --      0.0266                 0.1840                 0.0719
 IR Inten    --      0.7435                57.3417                 5.7027

                     10                     11                     12
                      A                      A                      A
 Frequencies --    253.0214               294.3432               304.7633
 Red. masses --      3.8918                 1.5093                 1.9224
 Frc consts  --      0.1468                 0.0770                 0.1052
 IR Inten    --      4.9264                 1.7127                 4.5471

                     13                     14                     15
                      A                      A                      A
 Frequencies --    340.6631               373.8469               510.3311
 Red. masses --      4.2930                 4.2436                 4.2440
 Frc consts  --      0.2935                 0.3494                 0.6512
 IR Inten    --    118.7573                36.2964               120.1432

                     16                     17                     18
                      A                      A                      A
 Frequencies --    578.0151               614.6427               630.1802
 Red. masses --      5.1165                 3.8931                 3.5495
 Frc consts  --      1.0072                 0.8665                 0.8305
 IR Inten    --    175.0779                63.0781               269.7059

                     19                     20                     21
                      A                      A                      A
 Frequencies --    965.3994              1014.3410              1048.1875
 Red. masses --      4.0884                 2.5354                 2.4603
 Frc consts  --      2.2450                 1.5370                 1.5926
 IR Inten    --    151.7136               221.9381                81.0059

                     22                     23                     24
                      A                      A                      A
 Frequencies --   1067.0826              1105.9726              1127.3082
 Red. masses --      2.1064                 1.5748                 1.5237
 Frc consts  --      1.4132                 1.1349                 1.1409
 IR Inten    --    218.0681               172.2662               167.4104

                     25                     26                     27
                      A                      A                      A
 Frequencies --   1169.4707              1177.1011              1196.5137
 Red. masses --      1.2272                 1.2769                 1.4178
 Frc consts  --      0.9889                 1.0424                 1.1959
 IR Inten    --     87.3857                13.4733                90.3689

                     28                     29                     30
                      A                      A                      A
 Frequencies --   1210.9796              1374.7977              1421.4725
 Red. masses --      1.2896                 1.6136                 1.2458
 Frc consts  --      1.1142                 1.7969                 1.4831
 IR Inten    --    202.0818              1024.1949                34.5038

                     31                     32                     33
                      A                      A                      A
 Frequencies --   1473.8457              1478.5606              1498.8222
 Red. masses --      1.1222                 1.1506                 1.0732
 Frc consts  --      1.4363                 1.4820                 1.4204
 IR Inten    --     51.8429                15.8029                46.7006

                     34                     35                     36
                      A                      A                      A
 Frequencies --   1500.9350              1512.9868              1519.1577
 Red. masses --      1.0914                 1.0601                 1.0524
 Frc consts  --      1.4486                 1.4298                 1.4310
 IR Inten    --     36.3000                 7.8208                 8.3134

                     37                     38                     39
                      A                      A                      A
 Frequencies --   1522.5523              1531.1877              1542.1886
 Red. masses --      1.0600                 1.1118                 1.5818
 Frc consts  --      1.4478                 1.5357                 2.2166
 IR Inten    --     25.0713                51.2963               352.4624

                     40                     41                     42
                      A                      A                      A
 Frequencies --   1580.5796              1882.8349              2342.7814
 Red. masses --      1.1566                 1.1478                 1.0584
 Frc consts  --      1.7024                 2.3974                 3.4225
 IR Inten    --    767.7950               339.3463              1367.7545

                     43                     44                     45
                      A                      A                      A
 Frequencies --   3044.3761              3058.2286              3066.0034
 Red. masses --      1.0341                 1.0419                 1.0338
 Frc consts  --      5.6467                 5.7415                 5.7256
 IR Inten    --     34.4403                32.6369                28.4224

                     46                     47                     48
                      A                      A                      A
 Frequencies --   3123.8499              3138.7146              3146.8448
 Red. masses --      1.1011                 1.0929                 1.1057
 Frc consts  --      6.3308                 6.3437                 6.4509
 IR Inten    --     20.2023                10.4951                30.2263

                     49                     50                     51
                      A                      A                      A
 Frequencies --   3148.0677              3170.0038              3174.0231
 Red. masses --      1.1029                 1.1044                 1.1087
 Frc consts  --      6.4397                 6.5386                 6.5808
 IR Inten    --      6.4317                 4.6647                11.0388

 - Thermochemistry -
 -------------------
 Temperature   298.150 Kelvin.  Pressure   1.00000 Atm.
 Atom     1 has atomic number  6 and mass  12.00000

 Molecular mass:   233.97122 amu.
 Principal axes and moments of inertia in atomic units:
                           1         2         3
     Eigenvalues --  1155.576742640.886363202.29973
           X            0.99860   0.05013   0.01707
           Y           -0.04985   0.99862  -0.01636
           Z           -0.01787   0.01548   0.99972
 This molecule is an asymmetric top.
 Rotational symmetry number  1.
 Warning -- assumption of classical behavior for rotation
           may cause significant error
 Rotational temperatures (Kelvin)      0.07495     0.03280     0.02705
 Rotational constants (GHZ):           1.56177     0.68338     0.56358
    1 imaginary frequencies ignored.
 Zero-point vibrational energy     397428.5 (Joules/Mol)
                                   94.98769 (Kcal/Mol)
 Warning -- explicit consideration of  16 degrees of freedom as
           vibrations may cause significant error
 Vibrational temperatures:     75.15   145.60   172.47   196.89   222.46
          (Kelvin)            282.64   302.24   343.29   364.04   423.49
                              438.49   490.14   537.88   734.25   831.63
                              884.33   906.69  1388.99  1459.41  1508.11
                             1535.29  1591.25  1621.94  1682.61  1693.58
                             1721.51  1742.33  1978.02  2045.18  2120.53
                             2127.32  2156.47  2159.51  2176.85  2185.73
                             2190.61  2203.03  2218.86  2274.10  2708.98
                             3370.74  4380.17  4400.10  4411.29  4494.52
                             4515.90  4527.60  4529.36  4560.92  4566.71

 Zero-point correction=                           0.151373 (Hartree/Particle)
 Thermal correction to Energy=                    0.162413
 Thermal correction to Enthalpy=                  0.163357
 Thermal correction to Gibbs Free Energy=         0.113366
 Sum of electronic and zero-point Energies=          -7274.664317
 Sum of electronic and thermal Energies=             -7274.653277
 Sum of electronic and thermal Enthalpies=           -7274.652333
 Sum of electronic and thermal Free Energies=        -7274.702323

                     E (Thermal)             CV                S
                      KCal/Mol        Cal/Mol-Kelvin    Cal/Mol-Kelvin
 Total                  101.915             37.334            105.214
 Electronic               0.000              0.000              0.000
 Translational            0.889              2.981             42.252
 Rotational               0.889              2.981             30.659
 Vibrational            100.138             31.372             32.303
 Vibration     1          0.596              1.977              4.731
 Vibration     2          0.604              1.948              3.431
 Vibration     3          0.609              1.933              3.102
 Vibration     4          0.614              1.917              2.848
 Vibration     5          0.620              1.898              2.615
 Vibration     6          0.636              1.845              2.166
 Vibration     7          0.642              1.825              2.043
 Vibration     8          0.657              1.781              1.813
 Vibration     9          0.664              1.758              1.709
 Vibration    10          0.689              1.684              1.449
 Vibration    11          0.696              1.665              1.391
 Vibration    12          0.720              1.594              1.209
 Vibration    13          0.745              1.526              1.064
 Vibration    14          0.865              1.227              0.633
 Vibration    15          0.935              1.079              0.489
 Vibration    16          0.974              1.001              0.425

 Normal termination of Gaussian 09 at Mon Feb 23 13:50:15 2015.
