 Gaussian 09, Revision D.01,
 Gaussian 09:  EM64L-G09RevD.01 24-Apr-2013

 ----------------------------------------------------------------------
 # opt=(calcfc,ts,noeigentest) freq=noraman b3lyp/aug-cc-pvtz geom=conn
 ectivity
 ----------------------------------------------------------------------

 -------------------
 Title Card Required
 -------------------
 Symbolic Z-matrix:
 Charge =  0 Multiplicity = 1

 SCF Done:  E(RB3LYP) =  -2959.04554154     A.U. after   12 cycles
 SCF Done:  E(RB3LYP) =  -2959.05524346     A.U. after   10 cycles
 SCF Done:  E(RB3LYP) =  -2959.06154124     A.U. after   10 cycles
 SCF Done:  E(RB3LYP) =  -2959.06335186     A.U. after   10 cycles
 SCF Done:  E(RB3LYP) =  -2959.06331603     A.U. after   10 cycles
 SCF Done:  E(RB3LYP) =  -2959.06411534     A.U. after   11 cycles
 SCF Done:  E(RB3LYP) =  -2959.06214516     A.U. after   11 cycles
 SCF Done:  E(RB3LYP) =  -2959.05272598     A.U. after   12 cycles
 SCF Done:  E(RB3LYP) =  -2959.05135054     A.U. after   13 cycles
 SCF Done:  E(RB3LYP) =  -2959.05770057     A.U. after   11 cycles
 SCF Done:  E(RB3LYP) =  -2959.06470188     A.U. after   12 cycles
 SCF Done:  E(RB3LYP) =  -2959.06486544     A.U. after    9 cycles
 SCF Done:  E(RB3LYP) =  -2959.06424757     A.U. after   10 cycles
 SCF Done:  E(RB3LYP) =  -2959.06478310     A.U. after   10 cycles
 SCF Done:  E(RB3LYP) =  -2959.06487504     A.U. after    9 cycles
 SCF Done:  E(RB3LYP) =  -2959.06488608     A.U. after    8 cycles
 SCF Done:  E(RB3LYP) =  -2959.06488567     A.U. after    8 cycles
 SCF Done:  E(RB3LYP) =  -2959.06488577     A.U. after    7 cycles
 SCF Done:  E(RB3LYP) =  -2959.06488581     A.U. after    7 cycles
 Optimization completed.
    -- Stationary point found.
 Normal termination of Gaussian 09 at Fri Mar 27 04:02:27 2015.

 ----------------------------------------------------------------------
 #N Geom=AllCheck Guess=TCheck SCRF=Check GenChk RB3LYP/Aug-CC-pVTZ Fre
 q
 ----------------------------------------------------------------------

 Structure from the checkpoint file:  "/lustre/SCRATCH5/gau/mlawal/847717.sched01/Gau-22553.chk"
 -------------------
 Title Card Required
 -------------------
 Charge =  0 Multiplicity = 1

                         Standard orientation:
 ---------------------------------------------------------------------
 Center     Atomic      Atomic             Coordinates (Angstroms)
 Number     Number       Type             X           Y           Z
 ---------------------------------------------------------------------
      1          6           0        0.238436    0.650801    0.528771
      2          8           0       -0.440605    0.175590    1.469796
      3          8           0       -0.644322    0.736528   -0.813170
      4          8           0       -1.817541   -1.187669   -0.000202
      5          6           0       -3.247096   -1.215191    0.152766
      6          1           0       -3.503773   -2.026543    0.829457
      7          1           0       -3.619252   -0.271383    0.552583
      8          1           0       -3.686779   -1.406469   -0.822667
      9          1           0       -1.375891   -0.311382   -0.603853
     10          1           0       -1.312141   -0.821302    0.858564
     11          6           0        0.993360    1.943349    0.712791
     12          1           0        1.748157    1.777404    1.477068
     13          1           0        1.481400    2.260255   -0.204008
     14          1           0        0.310077    2.716098    1.069554
     15          6           0       -1.462079    1.911539   -0.914187
     16          1           0       -0.844732    2.772187   -1.163111
     17          1           0       -2.170386    1.742782   -1.723826
     18          1           0       -2.005341    2.104429    0.013552
     19         35           0        1.687505   -0.744990   -0.240445
 ---------------------------------------------------------------------

 SCF Done:  E(RB3LYP) =  -2959.06488581     A.U. after    1 cycles

 The electronic state is 1-A.
 Alpha  occ. eigenvalues -- -482.81116 -62.45777 -56.27356 -56.27083 -56.27075
 Alpha  occ. eigenvalues --  -19.19597 -19.17911 -19.11546 -10.32730 -10.25750
 Alpha  occ. eigenvalues --  -10.24533 -10.18130  -8.64463  -6.47172  -6.46311
 Alpha  occ. eigenvalues --   -6.46285  -2.58722  -2.58491  -2.58469  -2.57784
 Alpha  occ. eigenvalues --   -2.57783  -1.10579  -1.06117  -1.02042  -0.76817
 Alpha  occ. eigenvalues --   -0.74440  -0.71969  -0.70571  -0.57935  -0.57147
 Alpha  occ. eigenvalues --   -0.56273  -0.49938  -0.49306  -0.48196  -0.47763
 Alpha  occ. eigenvalues --   -0.45112  -0.43659  -0.42696  -0.41591  -0.38722
 Alpha  occ. eigenvalues --   -0.37917  -0.36427  -0.31989  -0.29445  -0.26496
 Alpha  occ. eigenvalues --   -0.25253  -0.24651
 Alpha virt. eigenvalues --   -0.02669  -0.01931  -0.00774   0.00158   0.00488
 Alpha virt. eigenvalues --    0.01472   0.01900   0.02433   0.03243   0.03805
 Alpha virt. eigenvalues --    0.04585   0.04915   0.05134   0.05569   0.06074

 Mulliken charges:
               1
     1  C    1.348498
     2  O   -0.979293
     3  O   -0.242249
     4  O   -0.226855
     5  C   -0.590271
     6  H    0.244578
     7  H    0.295097
     8  H    0.276015
     9  H    0.255618
    10  H    0.153490
    11  C   -0.820076
    12  H    0.231604
    13  H    0.259773
    14  H    0.178141
    15  C   -0.599311
    16  H    0.224996
    17  H    0.194114
    18  H    0.294326
    19  Br  -0.498195
 Sum of Mulliken charges =   0.00000

 Dipole moment (field-independent basis, Debye):
    X=             -5.8196    Y=              2.6259    Z=             -0.7782  Tot=              6.4319
 Quadrupole moment (field-independent basis, Debye-Ang):
   XX=            -53.5829   YY=            -58.2370   ZZ=            -66.7190
   XY=              4.7679   XZ=              2.5704   YZ=             -1.7019

  Exact polarizability: 115.390  -5.484 102.543  -2.346   2.588  85.671
 Approx polarizability: 155.776 -15.785 144.608 -12.928   8.254 137.426

 ******    1 imaginary frequencies (negative Signs) ******

                      1                      2                      3
                      A                      A                      A
 Frequencies --   -947.4974                51.8450                96.2424
 Red. masses --      1.2938                 4.6462                 2.0952
 Frc consts  --      0.6843                 0.0074                 0.0114
 IR Inten    --    496.8972                 2.2359                 0.0641

                      4                      5                      6
                      A                      A                      A
 Frequencies --    103.7309               133.6115               156.6156
 Red. masses --      1.2595                 3.1283                 3.6612
 Frc consts  --      0.0080                 0.0329                 0.0529
 IR Inten    --      0.5304                13.3874                 5.3603

                      7                      8                      9
                      A                      A                      A
 Frequencies --    167.9693               205.2064               229.3294
 Red. masses --      1.0638                 8.3139                 2.0015
 Frc consts  --      0.0177                 0.2063                 0.0620
 IR Inten    --      0.1401               103.6839                 5.1258

                     10                     11                     12
                      A                      A                      A
 Frequencies --    257.9093               265.5749               299.7407
 Red. masses --      3.0299                 1.3851                 3.6057
 Frc consts  --      0.1187                 0.0576                 0.1909
 IR Inten    --      2.2833                 2.3116                 3.3879

                     13                     14                     15
                      A                      A                      A
 Frequencies --    343.2487               387.9853               523.8430
 Red. masses --      4.1671                 4.6895                 4.1829
 Frc consts  --      0.2893                 0.4159                 0.6763
 IR Inten    --     79.9274                48.9168               118.3277

                     16                     17                     18
                      A                      A                      A
 Frequencies --    585.9239               615.9483               632.7915
 Red. masses --      4.8581                 3.7895                 3.8834
 Frc consts  --      0.9827                 0.8471                 0.9162
 IR Inten    --    212.2541               123.7106               203.7317

                     19                     20                     21
                      A                      A                      A
 Frequencies --    955.3247              1008.0946              1039.0959
 Red. masses --      4.2847                 2.3116                 2.0915
 Frc consts  --      2.3040                 1.3841                 1.3305
 IR Inten    --    158.3935               227.8407               124.0566

                     22                     23                     24
                      A                      A                      A
 Frequencies --   1060.8755              1092.3825              1118.1582
 Red. masses --      2.4397                 1.4777                 1.7482
 Frc consts  --      1.6178                 1.0389                 1.2878
 IR Inten    --    178.6322               201.5491               106.9498

                     25                     26                     27
                      A                      A                      A
 Frequencies --   1165.4249              1173.2812              1191.4630
 Red. masses --      1.2340                 1.2803                 1.4221
 Frc consts  --      0.9875                 1.0384                 1.1895
 IR Inten    --     85.8823                15.7547                93.1799

                     28                     29                     30
                      A                      A                      A
 Frequencies --   1201.8315              1363.6579              1400.3523
 Red. masses --      1.3012                 1.4075                 1.2499
 Frc consts  --      1.1073                 1.5421                 1.4441
 IR Inten    --    157.0158               906.0272                52.2492

                     31                     32                     33
                      A                      A                      A
 Frequencies --   1449.1092              1465.1171              1473.6317
 Red. masses --      1.0957                 1.1066                 1.1026
 Frc consts  --      1.3556                 1.3995                 1.4107
 IR Inten    --    127.3909                18.2237                32.0971

                     34                     35                     36
                      A                      A                      A
 Frequencies --   1478.3867              1493.3769              1499.2602
 Red. masses --      1.0555                 1.0546                 1.0528
 Frc consts  --      1.3592                 1.3858                 1.3943
 IR Inten    --      3.4236                 4.6639                 0.5326

                     37                     38                     39
                      A                      A                      A
 Frequencies --   1502.4719              1510.3247              1534.8668
 Red. masses --      1.0546                 1.0731                 1.9175
 Frc consts  --      1.4027                 1.4422                 2.6615
 IR Inten    --     36.7922                17.5428               595.6125

                     40                     41                     42
                      A                      A                      A
 Frequencies --   1565.2951              1862.0593              2380.6512
 Red. masses --      1.2430                 1.1573                 1.0609
 Frc consts  --      1.7944                 2.3642                 3.5425
 IR Inten    --    477.3707               235.1071              1498.3464

                     43                     44                     45
                      A                      A                      A
 Frequencies --   3022.4866              3042.2172              3043.0391
 Red. masses --      1.0346                 1.0341                 1.0411
 Frc consts  --      5.5687                 5.6386                 5.6801
 IR Inten    --     30.9183                12.0551                32.2844

                     46                     47                     48
                      A                      A                      A
 Frequencies --   3096.1962              3116.2991              3117.1924
 Red. masses --      1.0995                 1.1027                 1.1036
 Frc consts  --      6.2103                 6.3095                 6.3183
 IR Inten    --     17.2198                27.7060                 4.7407

                     49                     50                     51
                      A                      A                      A
 Frequencies --   3121.3871              3139.1245              3151.8464
 Red. masses --      1.0940                 1.1077                 1.1042
 Frc consts  --      6.2801                 6.4314                 6.4628
 IR Inten    --      7.4394                 9.8657                 3.4057

 - Thermochemistry -
 -------------------
 Temperature   298.150 Kelvin.  Pressure   1.00000 Atm.
 Atom     1 has atomic number  6 and mass  12.00000

 Molecular mass:   185.98916 amu.
 Principal axes and moments of inertia in atomic units:
                           1         2         3
     Eigenvalues --  1080.650732094.087972605.30586
           X            0.99717   0.07282   0.01846
           Y           -0.07239   0.99711  -0.02301
           Z           -0.02009   0.02161   0.99956
 This molecule is an asymmetric top.
 Rotational symmetry number  1.
 Warning -- assumption of classical behavior for rotation
           may cause significant error
 Rotational temperatures (Kelvin)      0.08015     0.04136     0.03325
 Rotational constants (GHZ):           1.67005     0.86183     0.69272
    1 imaginary frequencies ignored.
 Zero-point vibrational energy     394120.5 (Joules/Mol)
                                   94.19705 (Kcal/Mol)
 Warning -- explicit consideration of  16 degrees of freedom as
           vibrations may cause significant error
 Vibrational temperatures:     74.59   138.47   149.25   192.24   225.33
          (Kelvin)            241.67   295.25   329.95   371.07   382.10
                              431.26   493.86   558.22   753.69   843.01
                              886.21   910.44  1374.50  1450.42  1495.03
                             1526.36  1571.69  1608.78  1676.78  1688.09
                             1714.25  1729.17  1962.00  2014.79  2084.94
                             2107.97  2120.22  2127.07  2148.63  2157.10
                             2161.72  2173.02  2208.33  2252.11  2679.08
                             3425.22  4348.68  4377.07  4378.25  4454.73
                             4483.65  4484.94  4490.97  4516.49  4534.80

 Zero-point correction=                           0.150113 (Hartree/Particle)
 Thermal correction to Energy=                    0.161280
 Thermal correction to Enthalpy=                  0.162224
 Thermal correction to Gibbs Free Energy=         0.112368
 Sum of electronic and zero-point Energies=          -2958.914773
 Sum of electronic and thermal Energies=             -2958.903606
 Sum of electronic and thermal Enthalpies=           -2958.902662
 Sum of electronic and thermal Free Energies=        -2958.952518

                     E (Thermal)             CV                S
                      KCal/Mol        Cal/Mol-Kelvin    Cal/Mol-Kelvin
 Total                  101.204             37.503            104.930
 Electronic               0.000              0.000              0.000
 Translational            0.889              2.981             41.568
 Rotational               0.889              2.981             30.156
 Vibrational             99.427             31.542             33.206
 Vibration     1          0.596              1.977              4.746
 Vibration     2          0.603              1.952              3.529
 Vibration     3          0.605              1.946              3.383
 Vibration     4          0.613              1.920              2.893
 Vibration     5          0.620              1.895              2.590
 Vibration     6          0.625              1.882              2.458
 Vibration     7          0.640              1.832              2.086
 Vibration     8          0.652              1.796              1.884
 Vibration     9          0.667              1.749              1.676
 Vibration    10          0.671              1.736              1.625
 Vibration    11          0.692              1.674              1.418
 Vibration    12          0.722              1.589              1.197
 Vibration    13          0.756              1.496              1.008
 Vibration    14          0.879              1.197              0.601
 Vibration    15          0.943              1.062              0.475
 Vibration    16          0.976              0.998              0.423

 Normal termination of Gaussian 09 at Fri Mar 27 23:23:04 2015.
