 Gaussian 09, Revision D.01,
 Gaussian 09:  EM64L-G09RevD.01 24-Apr-2013

 ----------------------------------------------------------------------
 # opt=(calcfc,ts,noeigentest) freq=noraman b3lyp/genecp geom=connectiv
 ity gfinput pseudo=read
 ----------------------------------------------------------------------

 --------------------------------------------------
 gen calculation ts624cl-C H O=aug-ccpvtz/Cl=dgdzvp
 --------------------------------------------------
 Symbolic Z-matrix:
 Charge =  0 Multiplicity = 1

 SCF Done:  E(RB3LYP) =  -844.986333838     A.U. after   13 cycles
 SCF Done:  E(RB3LYP) =  -844.999707542     A.U. after   11 cycles
 SCF Done:  E(RB3LYP) =  -845.002863777     A.U. after   11 cycles
 SCF Done:  E(RB3LYP) =  -845.003143757     A.U. after   11 cycles
 SCF Done:  E(RB3LYP) =  -845.002658680     A.U. after   12 cycles
 SCF Done:  E(RB3LYP) =  -845.003233134     A.U. after   11 cycles
 SCF Done:  E(RB3LYP) =  -845.002983305     A.U. after   11 cycles
 SCF Done:  E(RB3LYP) =  -845.003281017     A.U. after   10 cycles
 SCF Done:  E(RB3LYP) =  -845.003290756     A.U. after    9 cycles
 SCF Done:  E(RB3LYP) =  -845.003290335     A.U. after    8 cycles
 SCF Done:  E(RB3LYP) =  -845.003289995     A.U. after    8 cycles
 SCF Done:  E(RB3LYP) =  -845.003290293     A.U. after    7 cycles
 SCF Done:  E(RB3LYP) =  -845.003290200     A.U. after    7 cycles
 Optimization completed.
    -- Stationary point found.
 Normal termination of Gaussian 09 at Sat Mar 28 00:42:39 2015.

 ------------------------------------------------------------------
 #N Geom=AllCheck Guess=TCheck SCRF=Check GenChk RB3LYP/GenECP Freq
 ------------------------------------------------------------------

 Structure from the checkpoint file:  "/lustre/SCRATCH5/gau/mlawal/854269.sched01/Gau-19200.chk"
 --------------------------------------------------
 gen calculation ts624cl-C H O=aug-ccpvtz/Cl=dgdzvp
 --------------------------------------------------
 Charge =  0 Multiplicity = 1

                         Standard orientation:
 ---------------------------------------------------------------------
 Center     Atomic      Atomic             Coordinates (Angstroms)
 Number     Number       Type             X           Y           Z
 ---------------------------------------------------------------------
      1          6           0        0.811163    0.123610    0.435018
      2          6           0       -0.491492    2.071596   -0.648778
      3          1           0       -1.266879    2.263841   -1.389273
      4          1           0       -0.886368    2.267661    0.350907
      5          1           0        0.349942    2.733284   -0.845267
      6          6           0        1.930706    1.094740    0.716302
      7          1           0        2.635614    0.596820    1.377973
      8          1           0        2.447040    1.389520   -0.192718
      9          1           0        1.536771    1.969549    1.233585
     10          8           0       -0.084992    0.706539   -0.798653
     11          8           0       -1.757542   -0.862395   -0.110414
     12          6           0       -3.101870   -0.463898    0.199394
     13          1           0       -3.647177   -0.349322   -0.734294
     14          1           0       -3.566459   -1.248304    0.792487
     15          1           0       -3.118046    0.473388    0.757242
     16          1           0       -1.094137   -0.800520    0.732369
     17          1           0       -1.091778   -0.077257   -0.642975
     18         17           0        1.595294   -1.350891   -0.549539
     19          8           0        0.053840   -0.245369    1.370381
 ---------------------------------------------------------------------

 SCF Done:  E(RB3LYP) =  -845.003290200     A.U. after    1 cycles

 The electronic state is 1-A.
 Alpha  occ. eigenvalues -- -101.51090 -19.18672 -19.17338 -19.11000 -10.33039
 Alpha  occ. eigenvalues --  -10.25187 -10.24152 -10.17957  -9.41572  -7.18301
 Alpha  occ. eigenvalues --   -7.17509  -7.17479  -1.09858  -1.05346  -1.01660
 Alpha  occ. eigenvalues --   -0.79733  -0.74525  -0.73009  -0.70819  -0.57589
 Alpha  occ. eigenvalues --   -0.56427  -0.55840  -0.49824  -0.48856  -0.47728
 Alpha  occ. eigenvalues --   -0.47241  -0.45092  -0.43657  -0.42316  -0.41315
 Alpha  occ. eigenvalues --   -0.38896  -0.37705  -0.36191  -0.31548  -0.29640
 Alpha  occ. eigenvalues --   -0.28139  -0.28011  -0.26723
 Alpha virt. eigenvalues --   -0.02415  -0.00654   0.00060   0.00377   0.01242
 Alpha virt. eigenvalues --    0.01705   0.02109   0.02620   0.03372   0.04207
 Alpha virt. eigenvalues --    0.04852   0.05112   0.05301   0.05909   0.06375

 Mulliken charges:
               1
     1  C    0.476336
     2  C   -0.571037
     3  H    0.199887
     4  H    0.297842
     5  H    0.212980
     6  C   -0.609621
     7  H    0.241132
     8  H    0.296746
     9  H    0.161797
    10  O   -0.182298
    11  O   -0.222142
    12  C   -0.592702
    13  H    0.275882
    14  H    0.239343
    15  H    0.297360
    16  H    0.209549
    17  H    0.272202
    18  Cl  -0.174918
    19  O   -0.828339
 Sum of Mulliken charges =   0.00000

 Dipole moment (field-independent basis, Debye):
    X=             -3.9996    Y=              3.9524    Z=             -0.0495  Tot=              5.6232
 Quadrupole moment (field-independent basis, Debye-Ang):
   XX=            -48.1086   YY=            -56.3141   ZZ=            -61.5068
   XY=              3.9095   XZ=              1.6205   YZ=             -1.6980

  Exact polarizability: 100.011  -3.298  91.933  -1.298   2.780  78.041
 Approx polarizability: 126.012  -7.580 127.927  -6.780   6.993 123.169

 ******    1 imaginary frequencies (negative Signs) ******

                      1                      2                      3
                      A                      A                      A
 Frequencies --  -1035.1133                56.8090               102.5998
 Red. masses --      1.2557                 4.5952                 2.6568
 Frc consts  --      0.7927                 0.0087                 0.0165
 IR Inten    --    437.4719                 2.2884                 0.1193

                      4                      5                      6
                      A                      A                      A
 Frequencies --    116.7578               143.6252               175.9520
 Red. masses --      1.1178                 2.9561                 3.7243
 Frc consts  --      0.0090                 0.0359                 0.0679
 IR Inten    --      0.5952                 9.4729                 3.7415

                      7                      8                      9
                      A                      A                      A
 Frequencies --    179.2681               233.7796               264.7393
 Red. masses --      1.0751                 2.2791                 1.4258
 Frc consts  --      0.0204                 0.0734                 0.0589
 IR Inten    --      0.0566                12.4364                35.5524

                     10                     11                     12
                      A                      A                      A
 Frequencies --    281.5221               305.5289               314.6071
 Red. masses --      2.9738                 4.1453                 5.1584
 Frc consts  --      0.1389                 0.2280                 0.3008
 IR Inten    --     20.3834                50.0497                80.3650

                     13                     14                     15
                      A                      A                      A
 Frequencies --    351.8090               412.8946               528.5844
 Red. masses --      4.2912                 5.4328                 4.1839
 Frc consts  --      0.3129                 0.5457                 0.6888
 IR Inten    --     25.5548                35.0413               140.5173

                     16                     17                     18
                      A                      A                      A
 Frequencies --    583.4664               630.4250               632.7752
 Red. masses --      4.7870                 4.3802                 3.8248
 Frc consts  --      0.9602                 1.0257                 0.9023
 IR Inten    --    188.4294                97.1864               244.9894

                     19                     20                     21
                      A                      A                      A
 Frequencies --    958.9201              1017.6367              1050.0898
 Red. masses --      3.9878                 2.5351                 2.4232
 Frc consts  --      2.1605                 1.5468                 1.5743
 IR Inten    --    159.8135               217.5528               109.8653

                     22                     23                     24
                      A                      A                      A
 Frequencies --   1067.9730              1104.3335              1121.8806
 Red. masses --      2.0588                 1.5515                 1.6543
 Frc consts  --      1.3835                 1.1148                 1.2268
 IR Inten    --    198.6743               180.1958               159.9845

                     25                     26                     27
                      A                      A                      A
 Frequencies --   1168.8995              1176.8569              1194.2097
 Red. masses --      1.2428                 1.2837                 1.4304
 Frc consts  --      1.0005                 1.0475                 1.2019
 IR Inten    --     93.6587                11.7002                84.2443

                     28                     29                     30
                      A                      A                      A
 Frequencies --   1205.1412              1347.1094              1403.8455
 Red. masses --      1.2883                 1.4534                 1.2550
 Frc consts  --      1.1024                 1.5540                 1.4572
 IR Inten    --    190.4217              1157.7403                57.6531

                     31                     32                     33
                      A                      A                      A
 Frequencies --   1454.7727              1467.2632              1477.1860
 Red. masses --      1.0951                 1.1242                 1.0910
 Frc consts  --      1.3656                 1.4259                 1.4027
 IR Inten    --     85.5143                10.6389                35.8597

                     34                     35                     36
                      A                      A                      A
 Frequencies --   1480.0134              1494.6497              1500.3976
 Red. masses --      1.0707                 1.0541                 1.0533
 Frc consts  --      1.3819                 1.3875                 1.3970
 IR Inten    --     14.2441                 4.1375                 0.8986

                     37                     38                     39
                      A                      A                      A
 Frequencies --   1504.1229              1511.7740              1532.3212
 Red. masses --      1.0529                 1.0769                 1.7558
 Frc consts  --      1.4035                 1.4501                 2.4290
 IR Inten    --     33.3293                18.8520               482.7745

                     40                     41                     42
                      A                      A                      A
 Frequencies --   1567.1209              1834.7161              2272.0146
 Red. masses --      1.2280                 1.1757                 1.0537
 Frc consts  --      1.7769                 2.3317                 3.2048
 IR Inten    --    533.1411               321.1251              1382.6040

                     43                     44                     45
                      A                      A                      A
 Frequencies --   3019.6359              3038.6953              3053.0972
 Red. masses --      1.0348                 1.0335                 1.0369
 Frc consts  --      5.5590                 5.6227                 5.6946
 IR Inten    --     32.3047                23.6930                13.0133

                     46                     47                     48
                      A                      A                      A
 Frequencies --   3091.4171              3111.0256              3112.4164
 Red. masses --      1.0993                 1.1021                 1.1052
 Frc consts  --      6.1898                 6.2845                 6.3082
 IR Inten    --     18.8376                29.2525                 8.5368

                     49                     50                     51
                      A                      A                      A
 Frequencies --   3124.2120              3133.2840              3147.3337
 Red. masses --      1.0986                 1.1075                 1.1041
 Frc consts  --      6.3178                 6.4063                 6.4436
 IR Inten    --      8.4785                11.7728                 5.1576

 - Thermochemistry -
 -------------------
 Temperature   298.150 Kelvin.  Pressure   1.00000 Atm.
 Atom     1 has atomic number  6 and mass  12.00000

 Molecular mass:   142.03967 amu.
 Principal axes and moments of inertia in atomic units:
                           1         2         3
     Eigenvalues --   901.452391570.443041945.08269
           X            0.99825   0.05749   0.01369
           Y           -0.05708   0.99796  -0.02843
           Z           -0.01530   0.02760   0.99950
 This molecule is an asymmetric top.
 Rotational symmetry number  1.
 Warning -- assumption of classical behavior for rotation
           may cause significant error
 Rotational temperatures (Kelvin)      0.09608     0.05515     0.04453
 Rotational constants (GHZ):           2.00204     1.14919     0.92785
    1 imaginary frequencies ignored.
 Zero-point vibrational energy     395123.6 (Joules/Mol)
                                   94.43681 (Kcal/Mol)
 Warning -- explicit consideration of  15 degrees of freedom as
           vibrations may cause significant error
 Vibrational temperatures:     81.74   147.62   167.99   206.64   253.16
          (Kelvin)            257.93   336.36   380.90   405.05   439.59
                              452.65   506.17   594.06   760.51   839.48
                              907.04   910.42  1379.67  1464.15  1510.84
                             1536.57  1588.89  1614.13  1681.78  1693.23
                             1718.20  1733.93  1938.19  2019.82  2093.09
                             2111.06  2125.34  2129.41  2150.46  2158.73
                             2164.09  2175.10  2204.67  2254.73  2639.74
                             3268.92  4344.58  4372.00  4392.72  4447.85
                             4476.07  4478.07  4495.04  4508.09  4528.31

 Zero-point correction=                           0.150495 (Hartree/Particle)
 Thermal correction to Energy=                    0.161302
 Thermal correction to Enthalpy=                  0.162246
 Thermal correction to Gibbs Free Energy=         0.114153
 Sum of electronic and zero-point Energies=           -844.852796
 Sum of electronic and thermal Energies=              -844.841988
 Sum of electronic and thermal Enthalpies=            -844.841044
 Sum of electronic and thermal Free Energies=         -844.889137

                     E (Thermal)             CV                S
                      KCal/Mol        Cal/Mol-Kelvin    Cal/Mol-Kelvin
 Total                  101.218             37.037            101.220
 Electronic               0.000              0.000              0.000
 Translational            0.889              2.981             40.764
 Rotational               0.889              2.981             29.400
 Vibrational             99.441             31.075             31.055
 Vibration     1          0.596              1.975              4.565
 Vibration     2          0.605              1.947              3.404
 Vibration     3          0.608              1.935              3.153
 Vibration     4          0.616              1.910              2.755
 Vibration     5          0.628              1.872              2.371
 Vibration     6          0.629              1.868              2.336
 Vibration     7          0.654              1.789              1.850
 Vibration     8          0.671              1.738              1.630
 Vibration     9          0.681              1.708              1.524
 Vibration    10          0.696              1.663              1.386
 Vibration    11          0.702              1.646              1.338
 Vibration    12          0.728              1.572              1.158
 Vibration    13          0.777              1.442              0.916
 Vibration    14          0.884              1.187              0.590
 Vibration    15          0.940              1.067              0.479

 Optimization completed.
    -- Stationary point found.
 Normal termination of Gaussian 09 at Sat Mar 28 08:05:00 2015.
