 Gaussian 09, Revision D.01,
 Gaussian 09:  EM64L-G09RevD.01 24-Apr-2013

 ----------------------------------------------------------------------
 # opt=(calcfc,ts,noeigentest) freq=noraman b3lyp/gen geom=connectivity
  gfinput pseudo=read
 ----------------------------------------------------------------------

 ----------------------------------------------------
 gen calculation ts624cl-C H O=aug-ccpvtz/Cl=def2tzvp
 ----------------------------------------------------
 Symbolic Z-matrix:
 Charge =  0 Multiplicity = 1

 SCF Done:  E(RB3LYP) =  -845.046533358     A.U. after   13 cycles
 SCF Done:  E(RB3LYP) =  -845.059736649     A.U. after   11 cycles
 SCF Done:  E(RB3LYP) =  -845.062776440     A.U. after   11 cycles
 SCF Done:  E(RB3LYP) =  -845.062988448     A.U. after   10 cycles
 SCF Done:  E(RB3LYP) =  -845.062614967     A.U. after   11 cycles
 SCF Done:  E(RB3LYP) =  -845.063165601     A.U. after   11 cycles
 SCF Done:  E(RB3LYP) =  -845.063156364     A.U. after   10 cycles
 SCF Done:  E(RB3LYP) =  -845.063208817     A.U. after    9 cycles
 SCF Done:  E(RB3LYP) =  -845.063134400     A.U. after   10 cycles
 SCF Done:  E(RB3LYP) =  -845.063211114     A.U. after    9 cycles
 SCF Done:  E(RB3LYP) =  -845.063210738     A.U. after    7 cycles
 SCF Done:  E(RB3LYP) =  -845.063210270     A.U. after    7 cycles
 SCF Done:  E(RB3LYP) =  -845.063210465     A.U. after    6 cycles
 SCF Done:  E(RB3LYP) =  -845.063210453     A.U. after    6 cycles
 Optimization completed.
    -- Stationary point found.
 Normal termination of Gaussian 09 at Sat Mar 28 03:16:50 2015.

 ------------------------------------------------------------------
 #N Geom=AllCheck Guess=TCheck SCRF=Check GenChk RB3LYP/ChkBas Freq
 ------------------------------------------------------------------

 Structure from the checkpoint file:  "/lustre/SCRATCH5/gau/mlawal/854270.sched01/Gau-24842.chk"
 ----------------------------------------------------
 gen calculation ts624cl-C H O=aug-ccpvtz/Cl=def2tzvp
 ----------------------------------------------------
 Charge =  0 Multiplicity = 1

                         Standard orientation:
 ---------------------------------------------------------------------
 Center     Atomic      Atomic             Coordinates (Angstroms)
 Number     Number       Type             X           Y           Z
 ---------------------------------------------------------------------
      1          6           0        0.816804    0.110238    0.431764
      2          6           0       -0.491377    2.073337   -0.639415
      3          1           0       -1.268622    2.273304   -1.376135
      4          1           0       -0.884103    2.261458    0.362776
      5          1           0        0.349695    2.736849   -0.831879
      6          6           0        1.928351    1.088215    0.724382
      7          1           0        2.635569    0.589528    1.383303
      8          1           0        2.444841    1.394502   -0.180895
      9          1           0        1.527182    1.955497    1.248306
     10          8           0       -0.086023    0.710128   -0.801765
     11          8           0       -1.757626   -0.860349   -0.115625
     12          6           0       -3.099474   -0.461998    0.202277
     13          1           0       -3.649179   -0.338942   -0.727897
     14          1           0       -3.563664   -1.249736    0.791438
     15          1           0       -3.112174    0.471066    0.767461
     16          1           0       -1.086398   -0.803164    0.727226
     17          1           0       -1.092296   -0.071743   -0.645727
     18         17           0        1.593443   -1.340189   -0.553637
     19          8           0        0.054248   -0.261550    1.364867
 ---------------------------------------------------------------------

 SCF Done:  E(RB3LYP) =  -845.063210453     A.U. after    1 cycles

 The electronic state is 1-A.
 Alpha  occ. eigenvalues -- -101.47920 -19.18414 -19.17142 -19.10919 -10.32975
 Alpha  occ. eigenvalues --  -10.25036 -10.24031 -10.17939  -9.41191  -7.17263
 Alpha  occ. eigenvalues --   -7.16530  -7.16505  -1.09631  -1.05088  -1.01539
 Alpha  occ. eigenvalues --   -0.80146  -0.74486  -0.72915  -0.70657  -0.57499
 Alpha  occ. eigenvalues --   -0.56230  -0.55697  -0.49770  -0.48725  -0.47589
 Alpha  occ. eigenvalues --   -0.47074  -0.45069  -0.43650  -0.42211  -0.41251
 Alpha  occ. eigenvalues --   -0.38951  -0.37586  -0.36032  -0.31409  -0.29711
 Alpha  occ. eigenvalues --   -0.28352  -0.28116  -0.26843
 Alpha virt. eigenvalues --   -0.02354  -0.00613   0.00118   0.00404   0.01282
 Alpha virt. eigenvalues --    0.01757   0.02127   0.02642   0.03374   0.04204
 Alpha virt. eigenvalues --    0.04838   0.05135   0.05263   0.05893   0.06384

 Mulliken charges:
               1
     1  C    0.665914
     2  C   -0.583234
     3  H    0.202492
     4  H    0.293435
     5  H    0.216326
     6  C   -0.643265
     7  H    0.236873
     8  H    0.262983
     9  H    0.161800
    10  O   -0.205352
    11  O   -0.239921
    12  C   -0.598962
    13  H    0.276303
    14  H    0.237671
    15  H    0.296241
    16  H    0.182427
    17  H    0.240431
    18  Cl  -0.197649
    19  O   -0.804515
 Sum of Mulliken charges =   0.00000

 Dipole moment (field-independent basis, Debye):
    X=             -3.8100    Y=              3.8321    Z=             -0.0595  Tot=              5.4042
 Quadrupole moment (field-independent basis, Debye-Ang):
   XX=            -48.1287   YY=            -56.1822   ZZ=            -61.5009
   XY=              3.6102   XZ=              1.5257   YZ=             -1.5391

  Exact polarizability: 100.297  -3.063  91.764  -1.081   2.470  78.254
 Approx polarizability: 127.415  -6.949 128.398  -6.202   6.140 124.537

 ******    1 imaginary frequencies (negative Signs) ******

                      1                      2                      3
                      A                      A                      A
 Frequencies --  -1062.1255                57.5244               103.0431
 Red. masses --      1.2451                 4.5690                 2.6442
 Frc consts  --      0.8275                 0.0089                 0.0165
 IR Inten    --    400.6026                 2.2974                 0.1418

                      4                      5                      6
                      A                      A                      A
 Frequencies --    116.6614               144.4252               176.8648
 Red. masses --      1.1079                 3.0469                 3.8915
 Frc consts  --      0.0089                 0.0374                 0.0717
 IR Inten    --      0.5343                 9.4025                 3.5983

                      7                      8                      9
                      A                      A                      A
 Frequencies --    179.8473               234.3393               266.0180
 Red. masses --      1.0641                 2.2308                 1.3765
 Frc consts  --      0.0203                 0.0722                 0.0574
 IR Inten    --      0.0158                11.7925                29.5192

                     10                     11                     12
                      A                      A                      A
 Frequencies --    282.2885               307.4832               317.0511
 Red. masses --      3.2337                 3.7649                 5.9496
 Frc consts  --      0.1518                 0.2097                 0.3524
 IR Inten    --     19.9252                23.0007               114.7404

                     13                     14                     15
                      A                      A                      A
 Frequencies --    352.0090               415.8673               526.3832
 Red. masses --      4.3399                 5.5204                 4.1227
 Frc consts  --      0.3168                 0.5625                 0.6730
 IR Inten    --     21.6879                32.0310               150.9217

                     16                     17                     18
                      A                      A                      A
 Frequencies --    582.0857               629.5264               632.2812
 Red. masses --      4.7986                 4.4160                 3.9529
 Frc consts  --      0.9579                 1.0311                 0.9311
 IR Inten    --    165.4388               256.8597               103.9779

                     19                     20                     21
                      A                      A                      A
 Frequencies --    958.2871              1018.6267              1052.6079
 Red. masses --      3.9193                 2.6463                 2.4138
 Frc consts  --      2.1206                 1.6178                 1.5758
 IR Inten    --    160.9022               210.4428               111.1877

                     22                     23                     24
                      A                      A                      A
 Frequencies --   1068.3577              1106.9877              1122.0421
 Red. masses --      2.0695                 1.6214                 1.5631
 Frc consts  --      1.3917                 1.1707                 1.1595
 IR Inten    --    198.1130               158.0859               199.5621

                     25                     26                     27
                      A                      A                      A
 Frequencies --   1169.2488              1177.2161              1194.1550
 Red. masses --      1.2487                 1.2815                 1.4311
 Frc consts  --      1.0059                 1.0464                 1.2024
 IR Inten    --     95.0929                12.9537                78.8711

                     28                     29                     30
                      A                      A                      A
 Frequencies --   1206.1886              1338.3020              1403.4930
 Red. masses --      1.2793                 1.4709                 1.2537
 Frc consts  --      1.0966                 1.5522                 1.4549
 IR Inten    --    215.1693              1253.6052                54.3190

                     31                     32                     33
                      A                      A                      A
 Frequencies --   1456.2013              1467.0826              1477.1749
 Red. masses --      1.0963                 1.1290                 1.0991
 Frc consts  --      1.3697                 1.4317                 1.4131
 IR Inten    --     75.1278                11.1343                42.8087

                     34                     35                     36
                      A                      A                      A
 Frequencies --   1479.7045              1494.8586              1500.4577
 Red. masses --      1.0697                 1.0537                 1.0537
 Frc consts  --      1.3800                 1.3873                 1.3977
 IR Inten    --     12.2977                 4.0297                 1.2240

                     37                     38                     39
                      A                      A                      A
 Frequencies --   1504.2356              1511.5387              1528.8090
 Red. masses --      1.0530                 1.0867                 1.6931
 Frc consts  --      1.4038                 1.4628                 2.3316
 IR Inten    --     32.8857                23.6216               407.8507

                     40                     41                     42
                      A                      A                      A
 Frequencies --   1567.9868              1823.6133              2237.5997
 Red. masses --      1.2142                 1.1811                 1.0504
 Frc consts  --      1.7589                 2.3143                 3.0985
 IR Inten    --    594.7284               348.7979              1307.1185

                     43                     44                     45
                      A                      A                      A
 Frequencies --   3018.3112              3037.4989              3053.4252
 Red. masses --      1.0348                 1.0336                 1.0362
 Frc consts  --      5.5546                 5.6185                 5.6922
 IR Inten    --     33.0288                24.6076                11.8728

                     46                     47                     48
                      A                      A                      A
 Frequencies --   3089.5327              3109.3182              3110.7276
 Red. masses --      1.0992                 1.1020                 1.1052
 Frc consts  --      6.1815                 6.2769                 6.3010
 IR Inten    --     19.3210                30.3765                 8.6501

                     49                     50                     51
                      A                      A                      A
 Frequencies --   3124.0819              3131.4928              3145.8745
 Red. masses --      1.0993                 1.1075                 1.1040
 Frc consts  --      6.3216                 6.3986                 6.4374
 IR Inten    --      8.8577                12.3108                 5.4775

 - Thermochemistry -
 -------------------
 Temperature   298.150 Kelvin.  Pressure   1.00000 Atm.
 Atom     1 has atomic number  6 and mass  12.00000

 Molecular mass:   142.03967 amu.
 Principal axes and moments of inertia in atomic units:
                           1         2         3
     Eigenvalues --   897.840001568.660541939.76448
           X            0.99829   0.05675   0.01377
           Y           -0.05635   0.99802  -0.02782
           Z           -0.01532   0.02700   0.99952
 This molecule is an asymmetric top.
 Rotational symmetry number  1.
 Warning -- assumption of classical behavior for rotation
           may cause significant error
 Rotational temperatures (Kelvin)      0.09647     0.05522     0.04465
 Rotational constants (GHZ):           2.01009     1.15050     0.93039
    1 imaginary frequencies ignored.
 Zero-point vibrational energy     394819.9 (Joules/Mol)
                                   94.36423 (Kcal/Mol)
 Warning -- explicit consideration of  15 degrees of freedom as
           vibrations may cause significant error
 Vibrational temperatures:     82.76   148.26   167.85   207.80   254.47
          (Kelvin)            258.76   337.16   382.74   406.15   442.40
                              456.17   506.46   598.34   757.35   837.49
                              905.75   909.71  1378.76  1465.57  1514.47
                             1537.13  1592.71  1614.37  1682.29  1693.75
                             1718.12  1735.43  1925.52  2019.31  2095.15
                             2110.80  2125.32  2128.96  2150.77  2158.82
                             2164.26  2174.76  2199.61  2255.98  2623.77
                             3219.40  4342.67  4370.28  4393.19  4445.14
                             4473.61  4475.64  4494.85  4505.51  4526.21

 Zero-point correction=                           0.150379 (Hartree/Particle)
 Thermal correction to Energy=                    0.161171
 Thermal correction to Enthalpy=                  0.162115
 Thermal correction to Gibbs Free Energy=         0.114074
 Sum of electronic and zero-point Energies=           -844.912831
 Sum of electronic and thermal Energies=              -844.902040
 Sum of electronic and thermal Enthalpies=            -844.901095
 Sum of electronic and thermal Free Energies=         -844.949136

                     E (Thermal)             CV                S
                      KCal/Mol        Cal/Mol-Kelvin    Cal/Mol-Kelvin
 Total                  101.136             37.024            101.111
 Electronic               0.000              0.000              0.000
 Translational            0.889              2.981             40.764
 Rotational               0.889              2.981             29.392
 Vibrational             99.359             31.062             30.955
 Vibration     1          0.596              1.974              4.540
 Vibration     2          0.605              1.947              3.396
 Vibration     3          0.608              1.936              3.155
 Vibration     4          0.616              1.909              2.744
 Vibration     5          0.628              1.871              2.361
 Vibration     6          0.629              1.867              2.330
 Vibration     7          0.654              1.788              1.845
 Vibration     8          0.672              1.735              1.622
 Vibration     9          0.681              1.706              1.520
 Vibration    10          0.697              1.659              1.376
 Vibration    11          0.704              1.641              1.325
 Vibration    12          0.729              1.571              1.157
 Vibration    13          0.779              1.436              0.906
 Vibration    14          0.881              1.192              0.595
 Vibration    15          0.939              1.070              0.482

 Optimization completed.
    -- Stationary point found.
 Normal termination of Gaussian 09 at Sat Mar 28 12:31:50 2015.
