 Gaussian 09, Revision D.01,
 Gaussian 09:  EM64L-G09RevD.01 24-Apr-2013

 ----------------------------------------------------------------------
 # opt=(calcfc,ts,noeigentest) freq=noraman b3lyp/genecp geom=connectiv
 ity gfinput pseudo=read
 ----------------------------------------------------------------------

 ------------------------------------------------
 gen calculation ts624F-C H O=aug-ccpvtz/F=dgdzvp
 ------------------------------------------------
 Symbolic Z-matrix:
 Charge =  0 Multiplicity = 1

 SCF Done:  E(RB3LYP) =  -484.694650231     A.U. after   13 cycles
 SCF Done:  E(RB3LYP) =  -484.708668706     A.U. after   10 cycles
 SCF Done:  E(RB3LYP) =  -484.712679259     A.U. after   11 cycles
 SCF Done:  E(RB3LYP) =  -484.713013769     A.U. after   10 cycles
 SCF Done:  E(RB3LYP) =  -484.712497685     A.U. after   11 cycles
 SCF Done:  E(RB3LYP) =  -484.712982899     A.U. after   10 cycles
 SCF Done:  E(RB3LYP) =  -484.713194386     A.U. after   10 cycles
 SCF Done:  E(RB3LYP) =  -484.713229625     A.U. after   10 cycles
 SCF Done:  E(RB3LYP) =  -484.713236675     A.U. after    8 cycles
 SCF Done:  E(RB3LYP) =  -484.713237395     A.U. after    7 cycles
 SCF Done:  E(RB3LYP) =  -484.713237563     A.U. after    8 cycles
 SCF Done:  E(RB3LYP) =  -484.713237360     A.U. after    8 cycles
 SCF Done:  E(RB3LYP) =  -484.713237507     A.U. after    8 cycles
 SCF Done:  E(RB3LYP) =  -484.713237569     A.U. after    6 cycles
 Optimization completed.
    -- Stationary point found.

 1\1\GINC-CNODE-5-67\FTS\RB3LYP\GenECP\C4H11F1O3\MLAWAL\26-Mar-2015\0\\
 # opt=(calcfc,ts,noeigentest) freq=noraman b3lyp/genecp geom=connectiv
 ity gfinput pseudo=read\\gen calculation ts624F-C H O=aug-ccpvtz/F=dgd
 zvp\\0,1\C,1.0103152585,-0.4486805458,0.1675136369\O,0.2184244877,-0.9
 00230079,1.0489413506\O,0.2144426855,0.7610563556,-0.6874759319\O,-1.7
 393876972,-0.5610692943,-0.294491987\C,-2.9224686783,-0.0204659645,0.3
 031507385\H,-2.681388301,0.6398892717,1.1384890245\H,-3.4740587695,0.5
 339744035,-0.4536724124\H,-3.5401700976,-0.8416677892,0.6619923538\H,-

 Normal termination of Gaussian 09 at Thu Mar 26 21:44:51 2015.

 ------------------------------------------------------------------
 #N Geom=AllCheck Guess=TCheck SCRF=Check GenChk RB3LYP/GenECP Freq
 ------------------------------------------------------------------

 Structure from the checkpoint file:  "/lustre/SCRATCH5/gau/mlawal/850367.sched01/Gau-28135.chk"
 ------------------------------------------------
 gen calculation ts624F-C H O=aug-ccpvtz/F=dgdzvp
 ------------------------------------------------
 Charge =  0 Multiplicity = 1

                         Standard orientation:
 ---------------------------------------------------------------------
 Center     Atomic      Atomic             Coordinates (Angstroms)
 Number     Number       Type             X           Y           Z
 ---------------------------------------------------------------------
      1          6           0        1.010462   -0.424194    0.139996
      2          8           0        0.230206   -0.899054    1.019548
      3          8           0        0.184582    0.768984   -0.709788
      4          8           0       -1.735672   -0.603017   -0.322301
      5          6           0       -2.931737   -0.094570    0.277714
      6          1           0       -2.707022    0.568024    1.115838
      7          1           0       -3.497086    0.449183   -0.476707
      8          1           0       -3.528748   -0.932408    0.633101
      9          1           0       -0.942848    0.188565   -0.664024
     10          1           0       -0.985188   -0.953409    0.412299
     11          6           0        2.341038    0.151352    0.546243
     12          1           0        2.951217   -0.675280    0.907856
     13          1           0        2.842475    0.617319   -0.298387
     14          1           0        2.218858    0.864552    1.357310
     15          6           0        0.105537    2.031277   -0.051075
     16          1           0        1.057279    2.555114   -0.131147
     17          1           0       -0.659292    2.626598   -0.549911
     18          1           0       -0.158854    1.918520    1.004042
     19          9           0        1.202720   -1.260586   -0.965245
 ---------------------------------------------------------------------

 SCF Done:  E(RB3LYP) =  -484.713237569     A.U. after    1 cycles

 The electronic state is 1-A.
 Alpha  occ. eigenvalues --  -24.67051 -19.16744 -19.15906 -19.10190 -10.34494
 Alpha  occ. eigenvalues --  -10.24037 -10.23329 -10.17717  -1.19950  -1.07591
 Alpha  occ. eigenvalues --   -1.02961  -1.00792  -0.75565  -0.72238  -0.69868
 Alpha  occ. eigenvalues --   -0.59197  -0.55397  -0.55077  -0.52157  -0.48759
 Alpha  occ. eigenvalues --   -0.47477  -0.46653  -0.45907  -0.45486  -0.41949
 Alpha  occ. eigenvalues --   -0.41313  -0.40515  -0.38916  -0.37475  -0.36228
 Alpha  occ. eigenvalues --   -0.34472  -0.30214  -0.29163  -0.28088
 Alpha virt. eigenvalues --   -0.01951  -0.00381   0.00545   0.00772   0.02031
 Alpha virt. eigenvalues --    0.02204   0.02776   0.03346   0.04349   0.04874
 Alpha virt. eigenvalues --    0.05242   0.05533   0.06167   0.06438   0.06593

 Mulliken charges:
               1
     1  C    1.168321
     2  O   -0.791326
     3  O   -0.305131
     4  O   -0.298996
     5  C   -0.601314
     6  H    0.291147
     7  H    0.274894
     8  H    0.230418
     9  H    0.182536
    10  H    0.126170
    11  C   -0.819766
    12  H    0.202989
    13  H    0.227021
    14  H    0.206139
    15  C   -0.557813
    16  H    0.213686
    17  H    0.210956
    18  H    0.292507
    19  F   -0.252437
 Sum of Mulliken charges =   0.00000

 Dipole moment (field-independent basis, Debye):
    X=             -1.7512    Y=              3.5180    Z=              1.0485  Tot=              4.0672
 Quadrupole moment (field-independent basis, Debye-Ang):
   XX=            -39.8455   YY=            -49.6482   ZZ=            -54.3470
   XY=              1.0074   XZ=              0.4400   YZ=             -0.2423

  Exact polarizability:  87.158  -0.098  73.685   0.934  -1.761  63.740
 Approx polarizability: 103.783  -0.604 100.223  -0.406  -3.409  96.055

 ******    1 imaginary frequencies (negative Signs) ******

                      1                      2                      3
                      A                      A                      A
 Frequencies --  -1217.1188                62.3269                91.7681
 Red. masses --      1.1938                 3.8043                 1.0661
 Frc consts  --      1.0419                 0.0087                 0.0053
 IR Inten    --    298.1522                 3.2730                 0.0979

                      4                      5                      6
                      A                      A                      A
 Frequencies --    107.8793               152.6571               185.1895
 Red. masses --      2.6094                 3.6413                 1.0541
 Frc consts  --      0.0179                 0.0500                 0.0213
 IR Inten    --      0.5540                 5.6202                 0.0716

                      7                      8                      9
                      A                      A                      A
 Frequencies --    198.0165               225.4133               252.2943
 Red. masses --      3.3516                 1.4329                 1.6785
 Frc consts  --      0.0774                 0.0429                 0.0629
 IR Inten    --      2.2163                 1.9487                 6.5850

                     10                     11                     12
                      A                      A                      A
 Frequencies --    310.9386               336.9136               366.9131
 Red. masses --      4.1814                 3.5805                 6.1304
 Frc consts  --      0.2382                 0.2395                 0.4863
 IR Inten    --      6.9291                10.6697                90.2764

                     13                     14                     15
                      A                      A                      A
 Frequencies --    476.8683               508.8208               564.9280
 Red. masses --      4.5540                 5.3112                 5.3353
 Frc consts  --      0.6101                 0.8102                 1.0032
 IR Inten    --     28.2905               124.3163                 2.3736

                     16                     17                     18
                      A                      A                      A
 Frequencies --    635.0828               648.2727               792.8697
 Red. masses --      5.5490                 4.2227                 4.8589
 Frc consts  --      1.3186                 1.0456                 1.7997
 IR Inten    --    207.6419               307.6641               174.2685

                     19                     20                     21
                      A                      A                      A
 Frequencies --    985.1564              1031.2809              1070.1433
 Red. masses --      2.8935                 2.5236                 3.6701
 Frc consts  --      1.6546                 1.5813                 2.4764
 IR Inten    --    223.8431               278.8744               110.2678

                     22                     23                     24
                      A                      A                      A
 Frequencies --   1077.1732              1135.1703              1152.9306
 Red. masses --      1.6599                 1.4641                 1.7448
 Frc consts  --      1.1347                 1.1116                 1.3665
 IR Inten    --    367.1863               231.6804                41.2273

                     25                     26                     27
                      A                      A                      A
 Frequencies --   1176.2951              1182.5149              1204.8243
 Red. masses --      1.3598                 1.2934                 1.6643
 Frc consts  --      1.1085                 1.0656                 1.4234
 IR Inten    --    109.4287                18.6518               123.0141

                     28                     29                     30
                      A                      A                      A
 Frequencies --   1216.6049              1308.1125              1405.6310
 Red. masses --      1.2743                 1.3453                 1.2765
 Frc consts  --      1.1113                 1.3564                 1.4860
 IR Inten    --    410.9267              1699.5462                97.3462

                     31                     32                     33
                      A                      A                      A
 Frequencies --   1464.6035              1470.6111              1478.5256
 Red. masses --      1.1246                 1.1366                 1.1014
 Frc consts  --      1.4213                 1.4483                 1.4186
 IR Inten    --     40.4673                16.8101                44.0446

                     34                     35                     36
                      A                      A                      A
 Frequencies --   1482.4045              1496.1000              1501.3607
 Red. masses --      1.0570                 1.0525                 1.0540
 Frc consts  --      1.3686                 1.3881                 1.3998
 IR Inten    --      6.6487                 3.4699                12.5304

                     37                     38                     39
                      A                      A                      A
 Frequencies --   1505.3098              1513.6924              1535.1665
 Red. masses --      1.0512                 1.0654                 1.5889
 Frc consts  --      1.4034                 1.4383                 2.2063
 IR Inten    --     11.8397                20.1992               548.5064

                     40                     41                     42
                      A                      A                      A
 Frequencies --   1571.3792              1765.8632              2089.3704
 Red. masses --      1.3714                 1.2222                 1.0337
 Frc consts  --      1.9951                 2.2454                 2.6586
 IR Inten    --    496.6825               422.1624               786.2055

                     43                     44                     45
                      A                      A                      A
 Frequencies --   3011.1309              3028.8963              3059.4832
 Red. masses --      1.0356                 1.0341                 1.0346
 Frc consts  --      5.5320                 5.5897                 5.7061
 IR Inten    --     32.1458                30.3281                 3.2578

                     46                     47                     48
                      A                      A                      A
 Frequencies --   3079.3996              3097.2883              3099.7410
 Red. masses --      1.0978                 1.1005                 1.1055
 Frc consts  --      6.1337                 6.2204                 6.2585
 IR Inten    --     23.7872                33.1476                16.8204

                     49                     50                     51
                      A                      A                      A
 Frequencies --   3118.9520              3127.1668              3144.1838
 Red. masses --      1.1070                 1.1010                 1.1047
 Frc consts  --      6.3450                 6.3438                 6.4343
 IR Inten    --     16.5522                 8.3459                 9.5337

 - Thermochemistry -
 -------------------
 Temperature   298.150 Kelvin.  Pressure   1.00000 Atm.
 Atom     1 has atomic number  6 and mass  12.00000

 Molecular mass:   126.06922 amu.
 Principal axes and moments of inertia in atomic units:
                           1         2         3
     Eigenvalues --   665.082081325.513051595.95284
           X            0.99966   0.02439   0.00949
           Y           -0.02426   0.99961  -0.01397
           Z           -0.00983   0.01374   0.99986
 This molecule is an asymmetric top.
 Rotational symmetry number  1.
 Warning -- assumption of classical behavior for rotation
           may cause significant error
 Rotational temperatures (Kelvin)      0.13023     0.06534     0.05427
 Rotational constants (GHZ):           2.71356     1.36154     1.13082
    1 imaginary frequencies ignored.
 Zero-point vibrational energy     397780.0 (Joules/Mol)
                                   95.07170 (Kcal/Mol)
 Warning -- explicit consideration of  14 degrees of freedom as
           vibrations may cause significant error
 Vibrational temperatures:     89.67   132.03   155.21   219.64   266.45
          (Kelvin)            284.90   324.32   362.99   447.37   484.74
                              527.91   686.11   732.08   812.80   913.74
                              932.72  1140.76  1417.42  1483.78  1539.70
                             1549.81  1633.25  1658.81  1692.42  1701.37
                             1733.47  1750.42  1882.08  2022.39  2107.24
                             2115.88  2127.27  2132.85  2152.55  2160.12
                             2165.80  2177.86  2208.76  2260.86  2540.68
                             3006.13  4332.34  4357.90  4401.91  4430.56
                             4456.30  4459.83  4487.47  4499.29  4523.77

 Zero-point correction=                           0.151506 (Hartree/Particle)
 Thermal correction to Energy=                    0.161840
 Thermal correction to Enthalpy=                  0.162784
 Thermal correction to Gibbs Free Energy=         0.116015
 Sum of electronic and zero-point Energies=           -484.561731
 Sum of electronic and thermal Energies=              -484.551398
 Sum of electronic and thermal Enthalpies=            -484.550453
 Sum of electronic and thermal Free Energies=         -484.597223

                     E (Thermal)             CV                S
                      KCal/Mol        Cal/Mol-Kelvin    Cal/Mol-Kelvin
 Total                  101.556             35.683             98.434
 Electronic               0.000              0.000              0.000
 Translational            0.889              2.981             40.409
 Rotational               0.889              2.981             28.733
 Vibrational             99.779             29.722             29.292
 Vibration     1          0.597              1.972              4.382
 Vibration     2          0.602              1.955              3.622
 Vibration     3          0.606              1.943              3.307
 Vibration     4          0.619              1.900              2.639
 Vibration     5          0.631              1.860              2.275
 Vibration     6          0.637              1.843              2.151
 Vibration     7          0.650              1.802              1.915
 Vibration     8          0.664              1.759              1.714
 Vibration     9          0.700              1.653              1.357
 Vibration    10          0.718              1.602              1.227
 Vibration    11          0.740              1.540              1.093
 Vibration    12          0.833              1.301              0.719
 Vibration    13          0.864              1.230              0.636
 Vibration    14          0.921              1.107              0.514

 Optimization completed.
    -- Stationary point found.
 Normal termination of Gaussian 09 at Fri Mar 27 05:25:35 2015.
