 Gaussian 09, Revision D.01,
 Gaussian 09:  EM64L-G09RevD.01 24-Apr-2013

 ----------------------------------------------------------------------
 # opt=(calcfc,ts,noeigentest) freq=noraman b3lyp/aug-cc-pvtz geom=conn
 ectivity
 ----------------------------------------------------------------------

 ------------------
 Ts624Cl-aug-ccpvtz
 ------------------
 Symbolic Z-matrix:
 Charge =  0 Multiplicity = 1

 SCF Done:  E(RB3LYP) =  -845.053299526     A.U. after   12 cycles
 SCF Done:  E(RB3LYP) =  -845.066589930     A.U. after   10 cycles
 SCF Done:  E(RB3LYP) =  -845.069705341     A.U. after   10 cycles
 SCF Done:  E(RB3LYP) =  -845.069959038     A.U. after   10 cycles
 SCF Done:  E(RB3LYP) =  -845.069520657     A.U. after   10 cycles
 SCF Done:  E(RB3LYP) =  -845.070082428     A.U. after   10 cycles
 SCF Done:  E(RB3LYP) =  -845.069546755     A.U. after   10 cycles
 SCF Done:  E(RB3LYP) =  -845.070074495     A.U. after    9 cycles
 SCF Done:  E(RB3LYP) =  -845.070127332     A.U. after    9 cycles
 SCF Done:  E(RB3LYP) =  -845.070132620     A.U. after    8 cycles
 SCF Done:  E(RB3LYP) =  -845.070132756     A.U. after    7 cycles
 SCF Done:  E(RB3LYP) =  -845.070132491     A.U. after    7 cycles
 SCF Done:  E(RB3LYP) =  -845.070132601     A.U. after    6 cycles
 SCF Done:  E(RB3LYP) =  -845.070132667     A.U. after    5 cycles
 Optimization completed.
    -- Stationary point found.
 Normal termination of Gaussian 09 at Sat Mar 28 03:12:00 2015.

 ----------------------------------------------------------------------
 #N Geom=AllCheck Guess=TCheck SCRF=Check GenChk RB3LYP/Aug-CC-pVTZ Fre
 q
 ----------------------------------------------------------------------

 Structure from the checkpoint file:  "/lustre/SCRATCH5/gau/mlawal/854266.sched01/Gau-16459.chk"
 ------------------
 Ts624Cl-aug-ccpvtz
 ------------------
 Charge =  0 Multiplicity = 1

                         Standard orientation:
 ---------------------------------------------------------------------
 Center     Atomic      Atomic             Coordinates (Angstroms)
 Number     Number       Type             X           Y           Z
 ---------------------------------------------------------------------
      1          6           0        0.813457    0.117627    0.434082
      2          6           0       -0.490644    2.073218   -0.644852
      3          1           0       -1.265537    2.269399   -1.384941
      4          1           0       -0.886053    2.266321    0.355275
      5          1           0        0.351412    2.735120   -0.838256
      6          6           0        1.929871    1.091429    0.720699
      7          1           0        2.636313    0.592287    1.379937
      8          1           0        2.445455    1.392278   -0.186852
      9          1           0        1.533203    1.962406    1.242221
     10          8           0       -0.085544    0.708590   -0.799437
     11          8           0       -1.758114   -0.861103   -0.112984
     12          6           0       -3.101513   -0.463118    0.200536
     13          1           0       -3.648680   -0.344494   -0.731616
     14          1           0       -3.565711   -1.249441    0.791457
     15          1           0       -3.116392    0.472025    0.762084
     16          1           0       -1.091372   -0.802090    0.729832
     17          1           0       -1.092835   -0.074319   -0.643880
     18         17           0        1.594791   -1.346212   -0.551966
     19          8           0        0.053873   -0.253591    1.368092
 ---------------------------------------------------------------------

 SCF Done:  E(RB3LYP) =  -845.070132667     A.U. after    1 cycles

 The electronic state is 1-A.
 Alpha  occ. eigenvalues -- -101.51336 -19.18577 -19.17248 -19.10969 -10.33002
 Alpha  occ. eigenvalues --  -10.25133 -10.24104 -10.17954  -9.41820  -7.18033
 Alpha  occ. eigenvalues --   -7.17299  -7.17275  -1.09764  -1.05240  -1.01607
 Alpha  occ. eigenvalues --   -0.79920  -0.74516  -0.72984  -0.70754  -0.57551
 Alpha  occ. eigenvalues --   -0.56353  -0.55783  -0.49799  -0.48804  -0.47676
 Alpha  occ. eigenvalues --   -0.47174  -0.45084  -0.43653  -0.42276  -0.41294
 Alpha  occ. eigenvalues --   -0.38917  -0.37660  -0.36127  -0.31495  -0.29672
 Alpha  occ. eigenvalues --   -0.28230  -0.28077  -0.26786
 Alpha virt. eigenvalues --   -0.02396  -0.00642   0.00044   0.00373   0.01165
 Alpha virt. eigenvalues --    0.01713   0.02063   0.02602   0.03357   0.04089
 Alpha virt. eigenvalues --    0.04835   0.05065   0.05241   0.05841   0.06315

 Mulliken charges:
               1
     1  C    1.522554
     2  C   -0.604179
     3  H    0.191063
     4  H    0.291920
     5  H    0.227398
     6  C   -0.818331
     7  H    0.271600
     8  H    0.227219
     9  H    0.165777
    10  O   -0.313771
    11  O   -0.262929
    12  C   -0.597341
    13  H    0.275248
    14  H    0.239345
    15  H    0.294692
    16  H    0.165028
    17  H    0.237120
    18  Cl  -0.547886
    19  O   -0.964526
 Sum of Mulliken charges =   0.00000

 Dipole moment (field-independent basis, Debye):
    X=             -3.9348    Y=              3.9131    Z=             -0.0447  Tot=              5.5495
 Quadrupole moment (field-independent basis, Debye-Ang):
   XX=            -48.1462   YY=            -56.2928   ZZ=            -61.5032
   XY=              3.8286   XZ=              1.6021   YZ=             -1.6569

  Exact polarizability: 101.061  -3.380  92.744  -1.319   2.732  78.953
 Approx polarizability: 128.248  -7.184 129.402  -6.508   6.490 125.406

 ******    1 imaginary frequencies (negative Signs) ******

                      1                      2                      3
                      A                      A                      A
 Frequencies --  -1045.3886                57.3261               102.8655
 Red. masses --      1.2518                 4.5788                 2.6514
 Frc consts  --      0.8060                 0.0089                 0.0165
 IR Inten    --    418.4580                 2.2629                 0.1242

                      4                      5                      6
                      A                      A                      A
 Frequencies --    116.8677               144.0388               176.5189
 Red. masses --      1.1133                 2.9992                 3.8135
 Frc consts  --      0.0090                 0.0367                 0.0700
 IR Inten    --      0.5740                 9.6403                 3.7040

                      7                      8                      9
                      A                      A                      A
 Frequencies --    179.4518               234.1150               265.0923
 Red. masses --      1.0698                 2.2849                 1.4378
 Frc consts  --      0.0203                 0.0738                 0.0595
 IR Inten    --      0.0321                13.4298                37.4153

                     10                     11                     12
                      A                      A                      A
 Frequencies --    281.4838               305.6267               314.3122
 Red. masses --      2.9199                 4.1319                 5.1049
 Frc consts  --      0.1363                 0.2274                 0.2971
 IR Inten    --     21.4426                48.0592                81.1917

                     13                     14                     15
                      A                      A                      A
 Frequencies --    351.8148               413.9045               527.1921
 Red. masses --      4.2944                 5.4592                 4.1583
 Frc consts  --      0.3132                 0.5510                 0.6809
 IR Inten    --     24.5352                33.9654               145.6621

                     16                     17                     18
                      A                      A                      A
 Frequencies --    582.8366               630.3758               630.8866
 Red. masses --      4.7863                 4.5385                 3.7764
 Frc consts  --      0.9580                 1.0626                 0.8856
 IR Inten    --    177.8826               108.5355               241.4080

                     19                     20                     21
                      A                      A                      A
 Frequencies --    958.2382              1018.0062              1051.0644
 Red. masses --      3.9635                 2.5917                 2.4291
 Frc consts  --      2.1442                 1.5824                 1.5811
 IR Inten    --    159.3333               214.3231               109.4763

                     22                     23                     24
                      A                      A                      A
 Frequencies --   1068.1078              1105.3158              1121.8989
 Red. masses --      2.0550                 1.5796                 1.6110
 Frc consts  --      1.3813                 1.1370                 1.1947
 IR Inten    --    198.9643               170.5834               176.4096

                     25                     26                     27
                      A                      A                      A
 Frequencies --   1169.0062              1176.9469              1194.1155
 Red. masses --      1.2454                 1.2822                 1.4303
 Frc consts  --      1.0027                 1.0465                 1.2016
 IR Inten    --     93.6000                12.4499                81.7555

                     28                     29                     30
                      A                      A                      A
 Frequencies --   1205.5566              1343.1260              1403.5199
 Red. masses --      1.2840                 1.4622                 1.2540
 Frc consts  --      1.0995                 1.5541                 1.4554
 IR Inten    --    200.2624              1198.5236                55.7411

                     31                     32                     33
                      A                      A                      A
 Frequencies --   1455.1991              1467.1445              1477.1831
 Red. masses --      1.0954                 1.1256                 1.0933
 Frc consts  --      1.3667                 1.4275                 1.4056
 IR Inten    --     82.3606                10.9878                37.6774

                     34                     35                     36
                      A                      A                      A
 Frequencies --   1480.0750              1494.7405              1500.4345
 Red. masses --      1.0723                 1.0539                 1.0535
 Frc consts  --      1.3840                 1.3873                 1.3973
 IR Inten    --     14.6191                 4.1208                 1.0312

                     37                     38                     39
                      A                      A                      A
 Frequencies --   1504.1904              1511.6895              1530.5766
 Red. masses --      1.0529                 1.0813                 1.7305
 Frc consts  --      1.4037                 1.4559                 2.3886
 IR Inten    --     33.3524                21.1515               445.9924

                     40                     41                     42
                      A                      A                      A
 Frequencies --   1567.5656              1830.2204              2257.6452
 Red. masses --      1.2202                 1.1782                 1.0523
 Frc consts  --      1.7666                 2.3252                 3.1600
 IR Inten    --    564.4004               331.6121              1350.1611

                     43                     44                     45
                      A                      A                      A
 Frequencies --   3018.8852              3038.2350              3052.8751
 Red. masses --      1.0348                 1.0335                 1.0366
 Frc consts  --      5.5566                 5.6211                 5.6924
 IR Inten    --     32.8232                24.0595                12.5956

                     46                     47                     48
                      A                      A                      A
 Frequencies --   3090.4545              3110.3703              3111.6609
 Red. masses --      1.0992                 1.1021                 1.1051
 Frc consts  --      6.1854                 6.2821                 6.3044
 IR Inten    --     19.0619                30.4178                 7.7413

                     49                     50                     51
                      A                      A                      A
 Frequencies --   3124.0208              3132.6256              3146.7053
 Red. masses --      1.0989                 1.1075                 1.1041
 Frc consts  --      6.3186                 6.4035                 6.4410
 IR Inten    --      8.6870                11.9498                 5.2283

 - Thermochemistry -
 -------------------
 Temperature   298.150 Kelvin.  Pressure   1.00000 Atm.
 Atom     1 has atomic number  6 and mass  12.00000

 Molecular mass:   142.03967 amu.
 Principal axes and moments of inertia in atomic units:
                           1         2         3
     Eigenvalues --   900.194891570.271231943.39171
           X            0.99827   0.05717   0.01374
           Y           -0.05676   0.99799  -0.02819
           Z           -0.01532   0.02736   0.99951
 This molecule is an asymmetric top.
 Rotational symmetry number  1.
 Warning -- assumption of classical behavior for rotation
           may cause significant error
 Rotational temperatures (Kelvin)      0.09622     0.05516     0.04457
 Rotational constants (GHZ):           2.00483     1.14932     0.92866
    1 imaginary frequencies ignored.
 Zero-point vibrational energy     394959.7 (Joules/Mol)
                                   94.39764 (Kcal/Mol)
 Warning -- explicit consideration of  15 degrees of freedom as
           vibrations may cause significant error
 Vibrational temperatures:     82.48   148.00   168.15   207.24   253.97
          (Kelvin)            258.19   336.84   381.41   404.99   439.73
                              452.22   506.18   595.52   758.51   838.57
                              906.97   907.70  1378.69  1464.68  1512.25
                             1536.77  1590.30  1614.16  1681.94  1693.36
                             1718.06  1734.52  1932.46  2019.35  2093.70
                             2110.89  2125.33  2129.50  2150.60  2158.79
                             2164.19  2174.98  2202.16  2255.37  2633.28
                             3248.24  4343.50  4371.34  4392.40  4446.47
                             4475.12  4476.98  4494.76  4507.14  4527.40

 Zero-point correction=                           0.150432 (Hartree/Particle)
 Thermal correction to Energy=                    0.161236
 Thermal correction to Enthalpy=                  0.162180
 Thermal correction to Gibbs Free Energy=         0.114107
 Sum of electronic and zero-point Energies=           -844.919700
 Sum of electronic and thermal Energies=              -844.908896
 Sum of electronic and thermal Enthalpies=            -844.907952
 Sum of electronic and thermal Free Energies=         -844.956026

                     E (Thermal)             CV                S
                      KCal/Mol        Cal/Mol-Kelvin    Cal/Mol-Kelvin
 Total                  101.177             37.041            101.179
 Electronic               0.000              0.000              0.000
 Translational            0.889              2.981             40.764
 Rotational               0.889              2.981             29.398
 Vibrational             99.400             31.080             31.017
 Vibration     1          0.596              1.975              4.547
 Vibration     2          0.605              1.947              3.399
 Vibration     3          0.608              1.935              3.152
 Vibration     4          0.616              1.909              2.750
 Vibration     5          0.628              1.871              2.365
 Vibration     6          0.629              1.868              2.334
 Vibration     7          0.654              1.789              1.847
 Vibration     8          0.671              1.737              1.628
 Vibration     9          0.681              1.708              1.525
 Vibration    10          0.696              1.663              1.386
 Vibration    11          0.702              1.646              1.340
 Vibration    12          0.728              1.572              1.158
 Vibration    13          0.777              1.440              0.913
 Vibration    14          0.882              1.190              0.594
 Vibration    15          0.940              1.068              0.480

 Optimization completed.
    -- Stationary point found.
 Normal termination of Gaussian 09 at Sat Mar 28 12:40:30 2015.
