 Gaussian 09, Revision D.01,
 Gaussian 09:  EM64L-G09RevD.01 24-Apr-2013

 ----------------------------------------------------------------------
 # opt=(calcfc,ts,noeigentest) freq=noraman b3lyp/genecp geom=connectiv
 ity gfinput pseudo=read
 ----------------------------------------------------------------------

 -------------------------------------------------
 gen calculation ts624F-C H O=6-31+g(d)/F=Def2TZVP
 -------------------------------------------------
 Symbolic Z-matrix:
 Charge =  0 Multiplicity = 1

 SCF Done:  E(RB3LYP) =  -484.712754666     A.U. after   12 cycles
 SCF Done:  E(RB3LYP) =  -484.726598122     A.U. after   10 cycles
 SCF Done:  E(RB3LYP) =  -484.730570257     A.U. after   11 cycles
 SCF Done:  E(RB3LYP) =  -484.730940408     A.U. after   10 cycles
 SCF Done:  E(RB3LYP) =  -484.730406685     A.U. after   11 cycles
 SCF Done:  E(RB3LYP) =  -484.729615005     A.U. after   10 cycles
 SCF Done:  E(RB3LYP) =  -484.730909880     A.U. after   10 cycles
 SCF Done:  E(RB3LYP) =  -484.731058391     A.U. after   10 cycles
 SCF Done:  E(RB3LYP) =  -484.731148576     A.U. after    9 cycles
 SCF Done:  E(RB3LYP) =  -484.731151105     A.U. after    8 cycles
 SCF Done:  E(RB3LYP) =  -484.728940038     A.U. after   13 cycles
 SCF Done:  E(RB3LYP) =  -484.729985581     A.U. after   10 cycles
 SCF Done:  E(RB3LYP) =  -484.730146335     A.U. after   10 cycles
 SCF Done:  E(RB3LYP) =  -484.730824707     A.U. after   10 cycles
 SCF Done:  E(RB3LYP) =  -484.731043458     A.U. after   10 cycles
 SCF Done:  E(RB3LYP) =  -484.731148343     A.U. after    9 cycles
 SCF Done:  E(RB3LYP) =  -484.731143534     A.U. after    8 cycles
 SCF Done:  E(RB3LYP) =  -484.731151508     A.U. after    8 cycles
 SCF Done:  E(RB3LYP) =  -484.731151685     A.U. after    6 cycles
 Optimization completed.
    -- Stationary point found.

 1\1\GINC-CNODE-4-63\FTS\RB3LYP\GenECP\C4H11F1O3\MLAWAL\27-Mar-2015\0\\
 # opt=(calcfc,ts,noeigentest) freq=noraman b3lyp/genecp geom=connectiv
 ity gfinput pseudo=read\\gen calculation ts624F-C H O=6-31+g(d)/F=Def2
 TZVP\\0,1\C,0.9959147349,-0.4652102426,0.0557627158\O,0.1717321599,-1.
 0330304135,0.8358200394\O,0.2419749258,0.8890004753,-0.6093777002\O,-1
 .7465280064,-0.4322398141,-0.4693773411\C,-2.9305490089,0.0330662382,0
 .1863383307\H,-3.4528407325,0.7178315027,-0.4791632716\H,-3.5743622972
 ,-0.819673967,0.3940626313\H,-2.694283844,0.5415793473,1.1232079167\H,

 Normal termination of Gaussian 09 at Fri Mar 27 01:56:02 2015.

 ------------------------------------------------------------------
 #N Geom=AllCheck Guess=TCheck SCRF=Check GenChk RB3LYP/GenECP Freq
 ------------------------------------------------------------------

 Structure from the checkpoint file:  "/lustre/SCRATCH5/gau/mlawal/850350.sched01/Gau-18899.chk"
 -------------------------------------------------
 gen calculation ts624F-C H O=6-31+g(d)/F=Def2TZVP
 -------------------------------------------------
 Charge =  0 Multiplicity = 1

                         Standard orientation:
 ---------------------------------------------------------------------
 Center     Atomic      Atomic             Coordinates (Angstroms)
 Number     Number       Type             X           Y           Z
 ---------------------------------------------------------------------
      1          6           0        1.012463   -0.428183    0.136656
      2          8           0        0.229374   -0.906438    1.013143
      3          8           0        0.182867    0.771502   -0.710252
      4          8           0       -1.736217   -0.602328   -0.324085
      5          6           0       -2.931132   -0.096512    0.279825
      6          1           0       -3.496661    0.452991   -0.470380
      7          1           0       -3.529144   -0.935777    0.630294
      8          1           0       -2.705334    0.560405    1.122206
      9          1           0       -0.943988    0.190867   -0.663698
     10          1           0       -0.981612   -0.956357    0.408776
     11          6           0        2.338211    0.152806    0.551999
     12          1           0        2.950595   -0.671958    0.914408
     13          1           0        2.841952    0.623922   -0.288447
     14          1           0        2.208275    0.862778    1.364591
     15          6           0        0.103708    2.031995   -0.048890
     16          1           0        1.055243    2.556530   -0.127684
     17          1           0       -0.661324    2.628699   -0.545939
     18          1           0       -0.160584    1.917211    1.006116
     19          9           0        1.208321   -1.254649   -0.966471
 ---------------------------------------------------------------------

 SCF Done:  E(RB3LYP) =  -484.731151685     A.U. after    1 cycles

 The electronic state is 1-A.
 Alpha  occ. eigenvalues --  -24.66231 -19.16631 -19.15803 -19.10198 -10.34471
 Alpha  occ. eigenvalues --  -10.23974 -10.23279 -10.17729  -1.20242  -1.07501
 Alpha  occ. eigenvalues --   -1.02854  -1.00761  -0.75575  -0.72162  -0.69797
 Alpha  occ. eigenvalues --   -0.59307  -0.55369  -0.55004  -0.52203  -0.48774
 Alpha  occ. eigenvalues --   -0.47537  -0.46607  -0.45898  -0.45463  -0.41937
 Alpha  occ. eigenvalues --   -0.41339  -0.40513  -0.39023  -0.37518  -0.36230
 Alpha  occ. eigenvalues --   -0.34380  -0.30143  -0.29148  -0.28075
 Alpha virt. eigenvalues --   -0.01929  -0.00370   0.00545   0.00789   0.02037
 Alpha virt. eigenvalues --    0.02215   0.02786   0.03351   0.04343   0.04861
 Alpha virt. eigenvalues --    0.05250   0.05507   0.06160   0.06402   0.06601

 Mulliken charges:
               1
     1  C    1.044250
     2  O   -0.811709
     3  O   -0.300569
     4  O   -0.297208
     5  C   -0.600265
     6  H    0.274526
     7  H    0.230539
     8  H    0.291532
     9  H    0.210617
    10  H    0.167640
    11  C   -0.720789
    12  H    0.208787
    13  H    0.230637
    14  H    0.199615
    15  C   -0.570846
    16  H    0.213278
    17  H    0.208889
    18  H    0.290131
    19  F   -0.269055
 Sum of Mulliken charges =   0.00000

 Dipole moment (field-independent basis, Debye):
    X=             -1.6892    Y=              3.4645    Z=              1.0430  Tot=              3.9930
 Quadrupole moment (field-independent basis, Debye-Ang):
   XX=            -39.9063   YY=            -49.6173   ZZ=            -54.2971
   XY=              0.9389   XZ=              0.4044   YZ=             -0.1694

  Exact polarizability:  87.244  -0.122  73.799   0.955  -1.796  63.756
 Approx polarizability: 103.944  -0.654 100.409  -0.363  -3.521  96.032

 ******    1 imaginary frequencies (negative Signs) ******

                      1                      2                      3
                      A                      A                      A
 Frequencies --  -1228.8512                60.7663                90.7381
 Red. masses --      1.1902                 3.8164                 1.0670
 Frc consts  --      1.0589                 0.0083                 0.0052
 IR Inten    --    285.0706                 3.2067                 0.0879

                      4                      5                      6
                      A                      A                      A
 Frequencies --    107.8152               152.7008               184.9688
 Red. masses --      2.5963                 3.6413                 1.0542
 Frc consts  --      0.0178                 0.0500                 0.0212
 IR Inten    --      0.5659                 5.5761                 0.0710

                      7                      8                      9
                      A                      A                      A
 Frequencies --    197.8406               224.6706               252.1865
 Red. masses --      3.3776                 1.4289                 1.6776
 Frc consts  --      0.0779                 0.0425                 0.0629
 IR Inten    --      2.1283                 2.1316                 6.7688

                     10                     11                     12
                      A                      A                      A
 Frequencies --    310.3120               336.6517               365.1641
 Red. masses --      4.1752                 3.6022                 6.0639
 Frc consts  --      0.2369                 0.2405                 0.4764
 IR Inten    --      7.2938                 9.5612                93.2723

                     13                     14                     15
                      A                      A                      A
 Frequencies --    477.4319               508.9265               564.9049
 Red. masses --      4.5456                 5.2622                 5.3734
 Frc consts  --      0.6105                 0.8030                 1.0103
 IR Inten    --     26.5078               123.6998                 2.1750

                     16                     17                     18
                      A                      A                      A
 Frequencies --    635.1418               648.2032               797.9209
 Red. masses --      5.2337                 4.4653                 4.9044
 Frc consts  --      1.2439                 1.1054                 1.8398
 IR Inten    --    175.4325               336.0053               176.7712

                     19                     20                     21
                      A                      A                      A
 Frequencies --    985.8835              1031.2483              1071.1825
 Red. masses --      2.8414                 2.5318                 3.8689
 Frc consts  --      1.6272                 1.5864                 2.6156
 IR Inten    --    234.6010               285.6442               103.0990

                     22                     23                     24
                      A                      A                      A
 Frequencies --   1076.7951              1135.7640              1154.7625
 Red. masses --      1.6332                 1.4682                 1.6836
 Frc consts  --      1.1157                 1.1158                 1.3227
 IR Inten    --    390.1143               241.6713                40.9934

                     25                     26                     27
                      A                      A                      A
 Frequencies --   1176.7787              1182.7219              1205.1930
 Red. masses --      1.3724                 1.2967                 1.6878
 Frc consts  --      1.1198                 1.0687                 1.4444
 IR Inten    --    104.1489                23.4238               137.7959

                     28                     29                     30
                      A                      A                      A
 Frequencies --   1217.8946              1302.5031              1405.3863
 Red. masses --      1.2766                 1.3419                 1.2771
 Frc consts  --      1.1157                 1.3413                 1.4861
 IR Inten    --    429.2136              1723.0762                95.0524

                     31                     32                     33
                      A                      A                      A
 Frequencies --   1464.5857              1470.6494              1478.2389
 Red. masses --      1.1295                 1.1374                 1.1016
 Frc consts  --      1.4275                 1.4494                 1.4183
 IR Inten    --     39.3699                18.5330                44.1092

                     34                     35                     36
                      A                      A                      A
 Frequencies --   1482.3934              1496.2002              1501.3362
 Red. masses --      1.0575                 1.0525                 1.0541
 Frc consts  --      1.3691                 1.3882                 1.3999
 IR Inten    --      7.1946                 3.3366                12.7121

                     37                     38                     39
                      A                      A                      A
 Frequencies --   1505.3002              1513.4791              1534.2196
 Red. masses --      1.0510                 1.0667                 1.5871
 Frc consts  --      1.4032                 1.4396                 2.2011
 IR Inten    --     11.4110                21.1313               523.7115

                     40                     41                     42
                      A                      A                      A
 Frequencies --   1570.8312              1760.1148              2079.5894
 Red. masses --      1.3718                 1.2204                 1.0323
 Frc consts  --      1.9943                 2.2276                 2.6303
 IR Inten    --    522.0757               410.5487               737.0216

                     43                     44                     45
                      A                      A                      A
 Frequencies --   3010.2884              3028.2104              3059.1011
 Red. masses --      1.0356                 1.0342                 1.0347
 Frc consts  --      5.5294                 5.5875                 5.7052
 IR Inten    --     32.5200                30.7411                 3.2015

                     46                     47                     48
                      A                      A                      A
 Frequencies --   3078.2957              3096.3738              3098.7489
 Red. masses --      1.0977                 1.1004                 1.1055
 Frc consts  --      6.1286                 6.2162                 6.2542
 IR Inten    --     24.1815                33.8456                16.8220

                     49                     50                     51
                      A                      A                      A
 Frequencies --   3118.0370              3126.6736              3144.4044
 Red. masses --      1.1070                 1.1009                 1.1047
 Frc consts  --      6.3411                 6.3413                 6.4351
 IR Inten    --     16.8542                 8.4372                 9.5318

 - Thermochemistry -
 -------------------
 Temperature   298.150 Kelvin.  Pressure   1.00000 Atm.
 Atom     1 has atomic number  6 and mass  12.00000

 Molecular mass:   126.06922 amu.
 Principal axes and moments of inertia in atomic units:
                           1         2         3
     Eigenvalues --   665.261401325.549331596.41155
           X            0.99965   0.02449   0.00961
           Y           -0.02436   0.99961  -0.01353
           Z           -0.00994   0.01329   0.99986
 This molecule is an asymmetric top.
 Rotational symmetry number  1.
 Warning -- assumption of classical behavior for rotation
           may cause significant error
 Rotational temperatures (Kelvin)      0.13020     0.06534     0.05426
 Rotational constants (GHZ):           2.71283     1.36150     1.13050
    1 imaginary frequencies ignored.
 Zero-point vibrational energy     397635.9 (Joules/Mol)
                                   95.03726 (Kcal/Mol)
 Warning -- explicit consideration of  14 degrees of freedom as
           vibrations may cause significant error
 Vibrational temperatures:     87.43   130.55   155.12   219.70   266.13
          (Kelvin)            284.65   323.25   362.84   446.47   484.37
                              525.39   686.92   732.23   812.77   913.83
                              932.62  1148.03  1418.46  1483.73  1541.19
                             1549.27  1634.11  1661.44  1693.12  1701.67
                             1734.00  1752.28  1874.01  2022.03  2107.21
                             2115.93  2126.85  2132.83  2152.70  2160.09
                             2165.79  2177.56  2207.40  2260.07  2532.41
                             2992.06  4331.13  4356.91  4401.36  4428.98
                             4454.99  4458.40  4486.15  4498.58  4524.09

 Zero-point correction=                           0.151452 (Hartree/Particle)
 Thermal correction to Energy=                    0.161793
 Thermal correction to Enthalpy=                  0.162737
 Thermal correction to Gibbs Free Energy=         0.115926
 Sum of electronic and zero-point Energies=           -484.579700
 Sum of electronic and thermal Energies=              -484.569359
 Sum of electronic and thermal Enthalpies=            -484.568415
 Sum of electronic and thermal Free Energies=         -484.615226

                     E (Thermal)             CV                S
                      KCal/Mol        Cal/Mol-Kelvin    Cal/Mol-Kelvin
 Total                  101.527             35.682             98.523
 Electronic               0.000              0.000              0.000
 Translational            0.889              2.981             40.409
 Rotational               0.889              2.981             28.733
 Vibrational             99.749             29.720             29.381
 Vibration     1          0.597              1.973              4.432
 Vibration     2          0.602              1.956              3.644
 Vibration     3          0.606              1.943              3.308
 Vibration     4          0.619              1.900              2.638
 Vibration     5          0.631              1.860              2.278
 Vibration     6          0.637              1.843              2.153
 Vibration     7          0.649              1.803              1.921
 Vibration     8          0.664              1.759              1.715
 Vibration     9          0.699              1.654              1.361
 Vibration    10          0.717              1.602              1.228
 Vibration    11          0.738              1.544              1.100
 Vibration    12          0.834              1.300              0.717
 Vibration    13          0.864              1.230              0.636
 Vibration    14          0.921              1.107              0.514

 Optimization completed.
    -- Stationary point found.
 Normal termination of Gaussian 09 at Fri Mar 27 11:09:06 2015.
