 Gaussian 09, Revision D.01,
 Gaussian 09:  EM64L-G09RevD.01 24-Apr-2013

 ----------------------------------------------------------------------
 # opt=(calcfc,ts,noeigentest) freq=noraman b3lyp/gen pseudo=read gfinp
 ut geom=connectivity
 ----------------------------------------------------------------------

 -------------------------
 gen calculation ts624F-C H O=6-31+g(d)/F=def2tzvp
 -------------------------
 Symbolic Z-matrix:
 Charge =  0 Multiplicity = 1

 SCF Done:  E(RB3LYP) =  -484.554511188     A.U. after   13 cycles
 SCF Done:  E(RB3LYP) =  -484.567180241     A.U. after   12 cycles
 SCF Done:  E(RB3LYP) =  -484.570242431     A.U. after   11 cycles
 SCF Done:  E(RB3LYP) =  -484.570478521     A.U. after   11 cycles
 SCF Done:  E(RB3LYP) =  -484.570273209     A.U. after   11 cycles
 SCF Done:  E(RB3LYP) =  -484.570578883     A.U. after   11 cycles
 SCF Done:  E(RB3LYP) =  -484.570577782     A.U. after    9 cycles
 SCF Done:  E(RB3LYP) =  -484.570585224     A.U. after    9 cycles
 SCF Done:  E(RB3LYP) =  -484.570585463     A.U. after    7 cycles
 Optimization completed.
    -- Stationary point found.
 Normal termination of Gaussian 09 at Thu Feb 19 15:31:25 2015.

 ------------------------------------------------------------------
 #N Geom=AllCheck Guess=TCheck SCRF=Check GenChk RB3LYP/ChkBas Freq
 ------------------------------------------------------------------

 Structure from the checkpoint file:  "/lustre/SCRATCH5/gau/Gau-22379.chk"
 -------------------------
 gen calculation ts624F-C H O=6-31+g(d)/F=def2tzvp
 -------------------------
 Charge =  0 Multiplicity = 1

                         Standard orientation:
 ---------------------------------------------------------------------
 Center     Atomic      Atomic             Coordinates (Angstroms)
 Number     Number       Type             X           Y           Z
 ---------------------------------------------------------------------
      1          6           0        1.012010   -0.421729    0.137091
      2          8           0        0.235573   -0.884899    1.039632
      3          8           0        0.189394    0.762145   -0.711835
      4          8           0       -1.743272   -0.607879   -0.321572
      5          6           0       -2.938020   -0.080819    0.277206
      6          1           0       -2.701594    0.609322    1.096025
      7          1           0       -3.508220    0.438647   -0.496939
      8          1           0       -3.528504   -0.916355    0.661584
      9          1           0       -0.951498    0.180062   -0.679858
     10          1           0       -1.007409   -0.967310    0.417125
     11          6           0        2.356030    0.151591    0.528241
     12          1           0        2.971833   -0.678272    0.889231
     13          1           0        2.853478    0.615354   -0.327386
     14          1           0        2.246131    0.872459    1.341747
     15          6           0        0.110956    2.028703   -0.051660
     16          1           0        1.070007    2.548937   -0.133875
     17          1           0       -0.654812    2.624504   -0.558968
     18          1           0       -0.156270    1.911540    1.007236
     19          9           0        1.185271   -1.273367   -0.956777
 ---------------------------------------------------------------------

 SCF Done:  E(RB3LYP) =  -484.570585463     A.U. after    1 cycles

 The electronic state is 1-A.
 Alpha  occ. eigenvalues --  -24.65918 -19.19274 -19.18102 -19.12168 -10.35668
 Alpha  occ. eigenvalues --  -10.25354 -10.24393 -10.18474  -1.19837  -1.07910
 Alpha  occ. eigenvalues --   -1.03207  -1.00394  -0.75293  -0.72586  -0.70103
 Alpha  occ. eigenvalues --   -0.59140  -0.55471  -0.55434  -0.52081  -0.48748
 Alpha  occ. eigenvalues --   -0.47408  -0.46878  -0.45942  -0.45518  -0.42035
 Alpha  occ. eigenvalues --   -0.41056  -0.40541  -0.38889  -0.37309  -0.36174
 Alpha  occ. eigenvalues --   -0.34657  -0.30250  -0.28631  -0.27718
 Alpha virt. eigenvalues --   -0.00504   0.01305   0.01727   0.02629   0.03720
 Alpha virt. eigenvalues --    0.04536   0.05293   0.06355   0.07079   0.07514
 Alpha virt. eigenvalues --    0.08058   0.09365   0.09742   0.11168   0.11466

 Mulliken charges:
               1
     1  C    0.586557
     2  O   -0.565689
     3  O   -0.571127
     4  O   -0.777299
     5  C   -0.362379
     6  H    0.198720
     7  H    0.207693
     8  H    0.212248
     9  H    0.594491
    10  H    0.564572
    11  C   -0.753338
    12  H    0.237593
    13  H    0.228859
    14  H    0.220126
    15  C   -0.382179
    16  H    0.208862
    17  H    0.201076
    18  H    0.215412
    19  F   -0.264196
 Sum of Mulliken charges =   0.00000

 Dipole moment (field-independent basis, Debye):
    X=             -2.0317    Y=              3.7527    Z=              1.0214  Tot=              4.3879
 Quadrupole moment (field-independent basis, Debye-Ang):
   XX=            -39.1316   YY=            -49.7734   ZZ=            -55.1513
   XY=              0.8671   XZ=              0.1735   YZ=             -0.1638

  Exact polarizability:  80.438   0.067  67.920   0.835  -2.097  58.935
 Approx polarizability:  93.337  -0.172  89.645  -0.637  -3.849  86.673

 ******    1 imaginary frequencies (negative Signs) ******

                      1                      2                      3
                      A                      A                      A
 Frequencies --  -1192.1451                65.5964               108.5344
 Red. masses --      1.2018                 4.0081                 1.4122
 Frc consts  --      1.0063                 0.0102                 0.0098
 IR Inten    --    338.9490                 3.8899                 0.5304

                      4                      5                      6
                      A                      A                      A
 Frequencies --    111.6346               154.4849               194.6334
 Red. masses --      1.6198                 3.5206                 1.0662
 Frc consts  --      0.0119                 0.0495                 0.0238
 IR Inten    --      0.3123                 6.5368                 0.1251

                      7                      8                      9
                      A                      A                      A
 Frequencies --    203.9788               228.9667               259.9801
 Red. masses --      3.3836                 1.5133                 1.5625
 Frc consts  --      0.0829                 0.0467                 0.0622
 IR Inten    --      3.4206                 2.4689                 8.0219

                     10                     11                     12
                      A                      A                      A
 Frequencies --    311.3447               336.7868               372.4653
 Red. masses --      4.1703                 3.4637                 6.4546
 Frc consts  --      0.2382                 0.2315                 0.5276
 IR Inten    --      9.8577                19.8228                81.2114

                     13                     14                     15
                      A                      A                      A
 Frequencies --    470.4726               506.8480               557.3027
 Red. masses --      4.4618                 5.4804                 5.2158
 Frc consts  --      0.5819                 0.8295                 0.9544
 IR Inten    --     61.1294               127.3877                 3.2777

                     16                     17                     18
                      A                      A                      A
 Frequencies --    628.1545               646.7772               806.0908
 Red. masses --      6.5434                 3.6360                 4.7825
 Frc consts  --      1.5212                 0.8962                 1.8309
 IR Inten    --    295.2518               194.7219               165.1534

                     19                     20                     21
                      A                      A                      A
 Frequencies --    994.9162              1038.0070              1070.0148
 Red. masses --      2.6990                 2.4050                 3.0795
 Frc consts  --      1.5741                 1.5267                 2.0774
 IR Inten    --    205.8029               325.6835               139.3198

                     22                     23                     24
                      A                      A                      A
 Frequencies --   1082.8186              1139.9119              1161.1995
 Red. masses --      1.7438                 1.5191                 1.6271
 Frc consts  --      1.2046                 1.1630                 1.2926
 IR Inten    --    288.4165               175.5180                40.2904

                     25                     26                     27
                      A                      A                      A
 Frequencies --   1180.9163              1186.0135              1212.2127
 Red. masses --      1.3802                 1.2914                 1.6099
 Frc consts  --      1.1340                 1.0703                 1.3938
 IR Inten    --    108.0959                 7.4882               206.9267

                     28                     29                     30
                      A                      A                      A
 Frequencies --   1218.3806              1341.8977              1425.5373
 Red. masses --      1.3955                 1.4244                 1.2737
 Frc consts  --      1.2205                 1.5112                 1.5250
 IR Inten    --    197.5553              1718.1827               117.7962

                     31                     32                     33
                      A                      A                      A
 Frequencies --   1481.0622              1483.4249              1500.5386
 Red. masses --      1.1929                 1.1351                 1.1109
 Frc consts  --      1.5416                 1.4717                 1.4737
 IR Inten    --     24.1693                55.0292                68.8021

                     34                     35                     36
                      A                      A                      A
 Frequencies --   1503.2069              1514.4227              1520.0582
 Red. masses --      1.0491                 1.0561                 1.0528
 Frc consts  --      1.3968                 1.4271                 1.4332
 IR Inten    --      4.6588                10.7707                21.2127

                     37                     38                     39
                      A                      A                      A
 Frequencies --   1523.9482              1534.1046              1548.2846
 Red. masses --      1.0557                 1.0887                 1.4595
 Frc consts  --      1.4445                 1.5096                 2.0614
 IR Inten    --      7.1978                52.3020               520.4351

                     40                     41                     42
                      A                      A                      A
 Frequencies --   1579.2838              1797.8064              2125.0157
 Red. masses --      1.3159                 1.2218                 1.0351
 Frc consts  --      1.9337                 2.3267                 2.7540
 IR Inten    --    508.9360               563.7042               793.8199

                     43                     44                     45
                      A                      A                      A
 Frequencies --   3034.7646              3054.3463              3076.8629
 Red. masses --      1.0345                 1.0344                 1.0351
 Frc consts  --      5.6136                 5.6856                 5.7736
 IR Inten    --     36.0723                34.6835                 4.8771

                     46                     47                     48
                      A                      A                      A
 Frequencies --   3110.0997              3131.1708              3132.1932
 Red. masses --      1.0999                 1.1034                 1.1038
 Frc consts  --      6.2683                 6.3739                 6.3804
 IR Inten    --     26.4066                47.6791                 5.9831

                     49                     50                     51
                      A                      A                      A
 Frequencies --   3148.1429              3157.2923              3163.8392
 Red. masses --      1.1016                 1.1081                 1.1049
 Frc consts  --      6.4324                 6.5083                 6.5164
 IR Inten    --      9.6311                17.0104                11.9869

 - Thermochemistry -
 -------------------
 Temperature   298.150 Kelvin.  Pressure   1.00000 Atm.
 Atom     1 has atomic number  6 and mass  12.00000

 Molecular mass:   126.06922 amu.
 Principal axes and moments of inertia in atomic units:
                           1         2         3
     Eigenvalues --   665.408151331.331891601.01015
           X            0.99967   0.02403   0.00906
           Y           -0.02389   0.99961  -0.01458
           Z           -0.00941   0.01436   0.99985
 This molecule is an asymmetric top.
 Rotational symmetry number  1.
 Warning -- assumption of classical behavior for rotation
           may cause significant error
 Rotational temperatures (Kelvin)      0.13017     0.06506     0.05410
 Rotational constants (GHZ):           2.71223     1.35559     1.12725
    1 imaginary frequencies ignored.
 Zero-point vibrational energy     401560.9 (Joules/Mol)
                                   95.97537 (Kcal/Mol)
 Warning -- explicit consideration of  14 degrees of freedom as
           vibrations may cause significant error
 Vibrational temperatures:     94.38   156.16   160.62   222.27   280.03
          (Kelvin)            293.48   329.43   374.05   447.96   484.56
                              535.89   676.90   729.24   801.83   903.77
                              930.57  1159.78  1431.46  1493.46  1539.51
                             1557.93  1640.08  1670.71  1699.07  1706.41
                             1744.10  1752.98  1930.69  2051.03  2130.92
                             2134.31  2158.94  2162.78  2178.91  2187.02
                             2192.62  2207.23  2227.63  2272.23  2586.64
                             3057.42  4366.34  4394.52  4426.91  4474.73
                             4505.05  4506.52  4529.47  4542.63  4552.05

 Zero-point correction=                           0.152946 (Hartree/Particle)
 Thermal correction to Energy=                    0.163185
 Thermal correction to Enthalpy=                  0.164130
 Thermal correction to Gibbs Free Energy=         0.117716
 Sum of electronic and zero-point Energies=           -484.417639
 Sum of electronic and thermal Energies=              -484.407400
 Sum of electronic and thermal Enthalpies=            -484.406456
 Sum of electronic and thermal Free Energies=         -484.452869

                     E (Thermal)             CV                S
                      KCal/Mol        Cal/Mol-Kelvin    Cal/Mol-Kelvin
 Total                  102.400             35.529             97.685
 Electronic               0.000              0.000              0.000
 Translational            0.889              2.981             40.409
 Rotational               0.889              2.981             28.741
 Vibrational            100.623             29.567             28.536
 Vibration     1          0.597              1.971              4.281
 Vibration     2          0.606              1.942              3.295
 Vibration     3          0.607              1.940              3.240
 Vibration     4          0.620              1.898              2.616
 Vibration     5          0.635              1.847              2.183
 Vibration     6          0.640              1.834              2.097
 Vibration     7          0.652              1.797              1.887
 Vibration     8          0.668              1.746              1.662
 Vibration     9          0.700              1.652              1.355
 Vibration    10          0.717              1.602              1.227
 Vibration    11          0.744              1.529              1.070
 Vibration    12          0.827              1.316              0.736
 Vibration    13          0.862              1.235              0.641
 Vibration    14          0.913              1.124              0.529

 Optimization completed.
    -- Stationary point found.
 Normal termination of Gaussian 09 at Thu Feb 19 15:34:00 2015.
