 Gaussian 09, Revision D.01,
 Gaussian 09:  EM64L-G09RevD.01 24-Apr-2013

 ----------------------------------------------------------------------
 # opt=(calcfc,ts,noeigentest) freq=noraman b3lyp/genecp geom=connectiv
 ity gfinput pseudo=read
 ----------------------------------------------------------------------

 -------------------------------------------------
 gen calculation ts624cl-C H O=aug-ccpvtz/Cl=midix
 -------------------------------------------------
 Symbolic Z-matrix:
 Charge =  0 Multiplicity = 1

 SCF Done:  E(RB3LYP) =  -842.911995492     A.U. after   13 cycles
 SCF Done:  E(RB3LYP) =  -842.924752965     A.U. after   14 cycles
 SCF Done:  E(RB3LYP) =  -842.927208387     A.U. after   14 cycles
 SCF Done:  E(RB3LYP) =  -842.927733411     A.U. after   14 cycles
 SCF Done:  E(RB3LYP) =  -842.927766905     A.U. after   11 cycles
 SCF Done:  E(RB3LYP) =  -842.927826354     A.U. after   10 cycles
 SCF Done:  E(RB3LYP) =  -842.927829145     A.U. after    9 cycles
 SCF Done:  E(RB3LYP) =  -842.927829332     A.U. after    8 cycles
 SCF Done:  E(RB3LYP) =  -842.927270508     A.U. after   14 cycles
 SCF Done:  E(RB3LYP) =  -842.927746713     A.U. after   14 cycles
 SCF Done:  E(RB3LYP) =  -842.927728441     A.U. after   14 cycles
 SCF Done:  E(RB3LYP) =  -842.927824188     A.U. after   10 cycles
 SCF Done:  E(RB3LYP) =  -842.927791831     A.U. after   14 cycles
 SCF Done:  E(RB3LYP) =  -842.927828808     A.U. after    9 cycles
 SCF Done:  E(RB3LYP) =  -842.927829226     A.U. after    7 cycles
 SCF Done:  E(RB3LYP) =  -842.927829202     A.U. after    7 cycles
 Optimization completed.
    -- Stationary point found.
 Normal termination of Gaussian 09 at Sat Mar 28 01:35:11 2015.

 ------------------------------------------------------------------
 #N Geom=AllCheck Guess=TCheck SCRF=Check GenChk RB3LYP/GenECP Freq
 ------------------------------------------------------------------

 Structure from the checkpoint file:  "/lustre/SCRATCH5/gau/mlawal/854271.sched01/Gau-7765.chk"
 -------------------------------------------------
 gen calculation ts624cl-C H O=aug-ccpvtz/Cl=midix
 -------------------------------------------------
 Charge =  0 Multiplicity = 1

                         Standard orientation:
 ---------------------------------------------------------------------
 Center     Atomic      Atomic             Coordinates (Angstroms)
 Number     Number       Type             X           Y           Z
 ---------------------------------------------------------------------
      1          6           0        0.839860    0.081988    0.414345
      2          6           0       -0.486087    2.070358   -0.605270
      3          1           0       -1.290135    2.288140   -1.307462
      4          1           0       -0.846275    2.219598    0.415428
      5          1           0        0.341751    2.748715   -0.803972
      6          6           0        1.956851    1.051465    0.696471
      7          1           0        2.658168    0.548168    1.358767
      8          1           0        2.477202    1.339685   -0.212578
      9          1           0        1.568705    1.927022    1.213894
     10          8           0       -0.071236    0.719893   -0.822538
     11          8           0       -1.733194   -0.850129   -0.117562
     12          6           0       -3.064453   -0.436073    0.216103
     13          1           0       -3.623639   -0.294156   -0.706162
     14          1           0       -3.536975   -1.221169    0.802584
     15          1           0       -3.058797    0.491453    0.790874
     16          1           0       -1.047843   -0.783650    0.726774
     17          1           0       -1.064171   -0.059014   -0.658915
     18         17           0        1.520246   -1.340990   -0.548560
     19          8           0        0.067031   -0.246562    1.362150
 ---------------------------------------------------------------------

 SCF Done:  E(RB3LYP) =  -842.927829202     A.U. after    1 cycles

 The electronic state is 1-A.
 Alpha  occ. eigenvalues -- -100.97254 -19.17657 -19.16786 -19.10699 -10.32889
 Alpha  occ. eigenvalues --  -10.24572 -10.23717 -10.17876  -9.44941  -7.19770
 Alpha  occ. eigenvalues --   -7.18788  -7.18651  -1.09193  -1.04525  -1.01385
 Alpha  occ. eigenvalues --   -0.82003  -0.74598  -0.72567  -0.70268  -0.57329
 Alpha  occ. eigenvalues --   -0.55710  -0.55411  -0.49840  -0.48447  -0.47213
 Alpha  occ. eigenvalues --   -0.46705  -0.45072  -0.43857  -0.42040  -0.41051
 Alpha  occ. eigenvalues --   -0.39212  -0.37344  -0.35721  -0.31131  -0.30128
 Alpha  occ. eigenvalues --   -0.29170  -0.28255  -0.27191
 Alpha virt. eigenvalues --   -0.02166  -0.00489   0.00378   0.00505   0.01846
 Alpha virt. eigenvalues --    0.01971   0.02385   0.02780   0.03461   0.04223
 Alpha virt. eigenvalues --    0.04797   0.05289   0.05327   0.05895   0.06418

 Mulliken charges:
               1
     1  C    0.579533
     2  C   -0.531348
     3  H    0.230166
     4  H    0.292303
     5  H    0.217189
     6  C   -0.504892
     7  H    0.278043
     8  H    0.288009
     9  H    0.173925
    10  O   -0.316438
    11  O   -0.221233
    12  C   -0.589526
    13  H    0.275816
    14  H    0.229786
    15  H    0.298230
    16  H    0.213202
    17  H    0.200430
    18  Cl  -0.340880
    19  O   -0.772314
 Sum of Mulliken charges =   0.00000

 Dipole moment (field-independent basis, Debye):
    X=             -3.1932    Y=              3.5408    Z=             -0.1370  Tot=              4.7699
 Quadrupole moment (field-independent basis, Debye-Ang):
   XX=            -48.2575   YY=            -56.1473   ZZ=            -61.6717
   XY=              2.8057   XZ=              1.2230   YZ=             -1.2811

  Exact polarizability:  98.296  -1.869  89.202  -0.159   1.395  76.472
 Approx polarizability: 123.426  -5.194 124.078  -4.083   4.163 120.810

 ******    1 imaginary frequencies (negative Signs) ******

                      1                      2                      3
                      A                      A                      A
 Frequencies --  -1141.4957                67.8597               109.4276
 Red. masses --      1.2126                 4.2863                 2.5159
 Frc consts  --      0.9309                 0.0116                 0.0178
 IR Inten    --    375.1117                 2.6730                 0.4830

                      4                      5                      6
                      A                      A                      A
 Frequencies --    111.0902               145.5999               175.7102
 Red. masses --      1.1061                 3.3406                 2.0839
 Frc consts  --      0.0080                 0.0417                 0.0379
 IR Inten    --      0.3621                 5.2214                 1.9073

                      7                      8                      9
                      A                      A                      A
 Frequencies --    180.9648               231.4620               273.0711
 Red. masses --      1.3756                 2.1721                 1.1814
 Frc consts  --      0.0265                 0.0686                 0.0519
 IR Inten    --      0.9459                 6.2725                 3.3890

                     10                     11                     12
                      A                      A                      A
 Frequencies --    287.9612               316.4342               344.7231
 Red. masses --      4.4346                 3.9467                 4.2229
 Frc consts  --      0.2167                 0.2328                 0.2957
 IR Inten    --      9.6110                 3.8326                92.6583

                     13                     14                     15
                      A                      A                      A
 Frequencies --    385.9830               427.4621               530.7920
 Red. masses --      6.8556                 6.2016                 4.0211
 Frc consts  --      0.6018                 0.6677                 0.6675
 IR Inten    --     66.3509                19.8234               162.7764

                     16                     17                     18
                      A                      A                      A
 Frequencies --    578.1389               630.6094               660.4100
 Red. masses --      5.0890                 4.9580                 3.6694
 Frc consts  --      1.0022                 1.1617                 0.9429
 IR Inten    --    135.9782               297.4834               112.7169

                     19                     20                     21
                      A                      A                      A
 Frequencies --    966.5935              1020.7193              1056.2959
 Red. masses --      3.4282                 2.5826                 1.8617
 Frc consts  --      1.8871                 1.5853                 1.2239
 IR Inten    --    179.8828               223.4486               173.4386

                     22                     23                     24
                      A                      A                      A
 Frequencies --   1068.1646              1117.0406              1120.4895
 Red. masses --      2.8744                 2.1602                 1.3361
 Frc consts  --      1.9323                 1.5881                 0.9883
 IR Inten    --    161.3947                67.9438               387.8211

                     25                     26                     27
                      A                      A                      A
 Frequencies --   1170.3444              1177.7863              1194.2961
 Red. masses --      1.2725                 1.2836                 1.4447
 Frc consts  --      1.0269                 1.0491                 1.2141
 IR Inten    --     83.5483                12.0896                79.3810

                     28                     29                     30
                      A                      A                      A
 Frequencies --   1206.5918              1324.6313              1394.8301
 Red. masses --      1.2840                 1.4947                 1.2754
 Frc consts  --      1.1014                 1.5452                 1.4620
 IR Inten    --    270.4877              1247.0406                77.5682

                     31                     32                     33
                      A                      A                      A
 Frequencies --   1461.4041              1465.5935              1474.3482
 Red. masses --      1.1239                 1.1240                 1.1140
 Frc consts  --      1.4142                 1.4225                 1.4267
 IR Inten    --     32.4197                15.0189                62.8824

                     34                     35                     36
                      A                      A                      A
 Frequencies --   1477.7432              1494.1347              1499.5565
 Red. masses --      1.0514                 1.0544                 1.0557
 Frc consts  --      1.3527                 1.3869                 1.3987
 IR Inten    --      1.3680                 3.1860                 1.9628

                     37                     38                     39
                      A                      A                      A
 Frequencies --   1503.0976              1510.3420              1524.9707
 Red. masses --      1.0524                 1.0941                 1.5765
 Frc consts  --      1.4009                 1.4705                 2.1600
 IR Inten    --     26.0600                30.8976               314.5149

                     40                     41                     42
                      A                      A                      A
 Frequencies --   1571.7310              1793.7222              2151.6429
 Red. masses --      1.2022                 1.1862                 1.0446
 Frc consts  --      1.7498                 2.2485                 2.8493
 IR Inten    --    642.3590               435.4335              1074.2530

                     43                     44                     45
                      A                      A                      A
 Frequencies --   3018.7518              3034.6529              3057.3205
 Red. masses --      1.0340                 1.0335                 1.0343
 Frc consts  --      5.5514                 5.6078                 5.6961
 IR Inten    --     32.6573                27.4585                 7.9406

                     46                     47                     48
                      A                      A                      A
 Frequencies --   3088.6437              3104.7224              3107.5183
 Red. masses --      1.1001                 1.1015                 1.1055
 Frc consts  --      6.1834                 6.2560                 6.2901
 IR Inten    --     19.3223                30.5647                12.8768

                     49                     50                     51
                      A                      A                      A
 Frequencies --   3126.0568              3126.8193              3144.7005
 Red. masses --      1.1074                 1.1014                 1.1042
 Frc consts  --      6.3758                 6.3447                 6.4339
 IR Inten    --     14.0034                 9.3620                 6.9150

 - Thermochemistry -
 -------------------
 Temperature   298.150 Kelvin.  Pressure   1.00000 Atm.
 Atom     1 has atomic number  6 and mass  12.00000

 Molecular mass:   142.03967 amu.
 Principal axes and moments of inertia in atomic units:
                           1         2         3
     Eigenvalues --   886.690771526.463891894.56943
           X            0.99834   0.05614   0.01303
           Y           -0.05577   0.99808  -0.02708
           Z           -0.01453   0.02631   0.99955
 This molecule is an asymmetric top.
 Rotational symmetry number  1.
 Warning -- assumption of classical behavior for rotation
           may cause significant error
 Rotational temperatures (Kelvin)      0.09768     0.05674     0.04572
 Rotational constants (GHZ):           2.03537     1.18230     0.95259
    1 imaginary frequencies ignored.
 Zero-point vibrational energy     394845.2 (Joules/Mol)
                                   94.37026 (Kcal/Mol)
 Warning -- explicit consideration of  15 degrees of freedom as
           vibrations may cause significant error
 Vibrational temperatures:     97.63   157.44   159.83   209.49   252.81
          (Kelvin)            260.37   333.02   392.89   414.31   455.28
                              495.98   555.34   615.02   763.69   831.81
                              907.31   950.18  1390.71  1468.59  1519.77
                             1536.85  1607.17  1612.13  1683.86  1694.57
                             1718.32  1736.01  1905.85  2006.85  2102.63
                             2108.66  2121.26  2126.14  2149.72  2157.52
                             2162.62  2173.04  2194.09  2261.37  2580.76
                             3095.73  4343.31  4366.18  4398.80  4443.86
                             4467.00  4471.02  4497.69  4498.79  4524.52

 Zero-point correction=                           0.150389 (Hartree/Particle)
 Thermal correction to Energy=                    0.161037
 Thermal correction to Enthalpy=                  0.161981
 Thermal correction to Gibbs Free Energy=         0.114366
 Sum of electronic and zero-point Energies=           -842.777441
 Sum of electronic and thermal Energies=              -842.766792
 Sum of electronic and thermal Enthalpies=            -842.765848
 Sum of electronic and thermal Free Energies=         -842.813463

                     E (Thermal)             CV                S
                      KCal/Mol        Cal/Mol-Kelvin    Cal/Mol-Kelvin
 Total                  101.052             36.761            100.215
 Electronic               0.000              0.000              0.000
 Translational            0.889              2.981             40.764
 Rotational               0.889              2.981             29.329
 Vibrational             99.275             30.799             30.122
 Vibration     1          0.598              1.970              4.215
 Vibration     2          0.606              1.942              3.279
 Vibration     3          0.607              1.940              3.250
 Vibration     4          0.617              1.907              2.729
 Vibration     5          0.628              1.872              2.374
 Vibration     6          0.630              1.866              2.318
 Vibration     7          0.653              1.793              1.868
 Vibration     8          0.676              1.723              1.577
 Vibration     9          0.685              1.696              1.486
 Vibration    10          0.703              1.642              1.328
 Vibration    11          0.723              1.586              1.190
 Vibration    12          0.755              1.500              1.016
 Vibration    13          0.789              1.410              0.867
 Vibration    14          0.886              1.182              0.585
 Vibration    15          0.935              1.079              0.489

 Optimization completed.
    -- Stationary point found.
 Normal termination of Gaussian 09 at Sat Mar 28 08:25:55 2015.
