 Gaussian 09, Revision D.01,
 Gaussian 09:  EM64L-G09RevD.01 24-Apr-2013

 ----------------------------------------------------------------------
 # opt=(calcfc,ts,noeigentest) freq=noraman b3lyp/gen geom=connectivity
  gfinput pseudo=read
 ----------------------------------------------------------------------

 -----------------------
 gen calculation ts624F-C H O=6-31+g(d)/F=dgdzvp
 -----------------------
 Symbolic Z-matrix:
 Charge =  0 Multiplicity = 1

 SCF Done:  E(RB3LYP) =  -484.534637465     A.U. after   13 cycles
 SCF Done:  E(RB3LYP) =  -484.547432997     A.U. after   12 cycles
 SCF Done:  E(RB3LYP) =  -484.550505900     A.U. after   11 cycles
 SCF Done:  E(RB3LYP) =  -484.550745758     A.U. after   11 cycles
 SCF Done:  E(RB3LYP) =  -484.550551019     A.U. after   11 cycles
 SCF Done:  E(RB3LYP) =  -484.550839623     A.U. after   11 cycles
 SCF Done:  E(RB3LYP) =  -484.550838919     A.U. after    9 cycles
 SCF Done:  E(RB3LYP) =  -484.550845339     A.U. after    9 cycles
 SCF Done:  E(RB3LYP) =  -484.550845556     A.U. after    7 cycles
 Optimization completed.
    -- Stationary point found.
 Normal termination of Gaussian 09 at Mon Feb 23 12:16:10 2015.

 ------------------------------------------------------------------
 #N Geom=AllCheck Guess=TCheck SCRF=Check GenChk RB3LYP/ChkBas Freq
 ------------------------------------------------------------------

 Structure from the checkpoint file:  "/lustre/SCRATCH5/gau/Gau-14711.chk"
 -----------------------
 gen calculation ts624F-C H O=6-31+g(d)/F=dgdzvp
 -----------------------
 Charge =  0 Multiplicity = 1

                         Standard orientation:
 ---------------------------------------------------------------------
 Center     Atomic      Atomic             Coordinates (Angstroms)
 Number     Number       Type             X           Y           Z
 ---------------------------------------------------------------------
      1          6           0        1.010937   -0.418727    0.139848
      2          8           0        0.236075   -0.882214    1.042169
      3          8           0        0.189936    0.760106   -0.711456
      4          8           0       -1.744118   -0.608694   -0.321051
      5          6           0       -2.939077   -0.079611    0.276431
      6          1           0       -2.702222    0.612156    1.093631
      7          1           0       -3.508366    0.438138   -0.499413
      8          1           0       -3.529730   -0.914256    0.662282
      9          1           0       -0.952996    0.177486   -0.680070
     10          1           0       -1.011925   -0.967944    0.417487
     11          6           0        2.357130    0.152293    0.526550
     12          1           0        2.971326   -0.678124    0.888766
     13          1           0        2.854010    0.611730   -0.331675
     14          1           0        2.251111    0.876188    1.337969
     15          6           0        0.111374    2.028058   -0.053531
     16          1           0        1.071020    2.547243   -0.134841
     17          1           0       -0.652820    2.623202   -0.563851
     18          1           0       -0.158231    1.913044    1.004979
     19          9           0        1.185722   -1.276058   -0.956483
 ---------------------------------------------------------------------

 SCF Done:  E(RB3LYP) =  -484.550845556     A.U. after    1 cycles

 The electronic state is 1-A.
 Alpha  occ. eigenvalues --  -24.66223 -19.19425 -19.18181 -19.12197 -10.35635
 Alpha  occ. eigenvalues --  -10.25438 -10.24441 -10.18482  -1.19745  -1.08033
 Alpha  occ. eigenvalues --   -1.03322  -1.00439  -0.75315  -0.72679  -0.70175
 Alpha  occ. eigenvalues --   -0.59122  -0.55568  -0.55505  -0.52097  -0.48781
 Alpha  occ. eigenvalues --   -0.47432  -0.46952  -0.45947  -0.45551  -0.42071
 Alpha  occ. eigenvalues --   -0.41063  -0.40573  -0.38849  -0.37331  -0.36205
 Alpha  occ. eigenvalues --   -0.34754  -0.30331  -0.28657  -0.27746
 Alpha virt. eigenvalues --   -0.00539   0.01289   0.01705   0.02612   0.03688
 Alpha virt. eigenvalues --    0.04520   0.05275   0.06360   0.07072   0.07588
 Alpha virt. eigenvalues --    0.08091   0.09380   0.09793   0.11217   0.11515

 Mulliken charges:
               1
     1  C    0.577725
     2  O   -0.554305
     3  O   -0.557710
     4  O   -0.778584
     5  C   -0.362560
     6  H    0.199126
     7  H    0.208223
     8  H    0.212778
     9  H    0.592286
    10  H    0.563568
    11  C   -0.716956
    12  H    0.236756
    13  H    0.228937
    14  H    0.220913
    15  C   -0.374772
    16  H    0.209185
    17  H    0.201333
    18  H    0.216255
    19  F   -0.322200
 Sum of Mulliken charges =   0.00000

 Dipole moment (field-independent basis, Debye):
    X=             -2.1094    Y=              3.8136    Z=              1.0565  Tot=              4.4844
 Quadrupole moment (field-independent basis, Debye-Ang):
   XX=            -39.0788   YY=            -49.8580   ZZ=            -55.2418
   XY=              0.9719   XZ=              0.2478   YZ=             -0.2629

  Exact polarizability:  80.055   0.132  67.662   0.854  -2.106  58.776
 Approx polarizability:  92.722  -0.113  89.269  -0.631  -3.756  86.413

 ******    1 imaginary frequencies (negative Signs) ******

                      1                      2                      3
                      A                      A                      A
 Frequencies --  -1176.9066                66.1671               108.9836
 Red. masses --      1.2072                 4.0163                 1.6360
 Frc consts  --      0.9852                 0.0104                 0.0114
 IR Inten    --    350.6976                 3.9472                 0.6396

                      4                      5                      6
                      A                      A                      A
 Frequencies --    112.0891               153.7459               195.0613
 Red. masses --      1.4046                 3.4899                 1.0632
 Frc consts  --      0.0104                 0.0486                 0.0238
 IR Inten    --      0.1897                 6.5652                 0.1236

                      7                      8                      9
                      A                      A                      A
 Frequencies --    203.9917               229.0054               260.3867
 Red. masses --      3.3653                 1.5070                 1.5779
 Frc consts  --      0.0825                 0.0466                 0.0630
 IR Inten    --      3.5311                 2.2238                 7.9507

                     10                     11                     12
                      A                      A                      A
 Frequencies --    312.0579               337.1454               374.1619
 Red. masses --      4.1742                 3.4538                 6.5121
 Frc consts  --      0.2395                 0.2313                 0.5371
 IR Inten    --      9.9848                21.2043                78.3203

                     13                     14                     15
                      A                      A                      A
 Frequencies --    469.2893               506.7717               557.4404
 Red. masses --      4.4578                 5.5217                 5.1715
 Frc consts  --      0.5784                 0.8355                 0.9468
 IR Inten    --     65.4488               124.2508                 3.5996

                     16                     17                     18
                      A                      A                      A
 Frequencies --    626.8883               648.3791               801.0631
 Red. masses --      6.5624                 3.5950                 4.7785
 Frc consts  --      1.5195                 0.8904                 1.8067
 IR Inten    --    297.5734               188.1827               162.2825

                     19                     20                     21
                      A                      A                      A
 Frequencies --    994.2381              1038.1093              1068.8578
 Red. masses --      2.7460                 2.4023                 3.1391
 Frc consts  --      1.5993                 1.5254                 2.1130
 IR Inten    --    194.9865               322.2179               132.6261

                     22                     23                     24
                      A                      A                      A
 Frequencies --   1082.7461              1139.7246              1159.8068
 Red. masses --      1.7238                 1.5106                 1.6767
 Frc consts  --      1.1907                 1.1561                 1.3288
 IR Inten    --    278.1540               168.9707                39.5452

                     25                     26                     27
                      A                      A                      A
 Frequencies --   1180.0196              1185.8973              1212.0809
 Red. masses --      1.3584                 1.2947                 1.6247
 Frc consts  --      1.1145                 1.0728                 1.4063
 IR Inten    --    111.1163                 6.5190               183.8564

                     28                     29                     30
                      A                      A                      A
 Frequencies --   1217.4538              1347.2643              1426.1859
 Red. masses --      1.3635                 1.4281                 1.2727
 Frc consts  --      1.1907                 1.5272                 1.5253
 IR Inten    --    203.3744              1673.3654               119.8599

                     31                     32                     33
                      A                      A                      A
 Frequencies --   1480.7537              1482.8528              1500.6343
 Red. masses --      1.1725                 1.1444                 1.1123
 Frc consts  --      1.5147                 1.4826                 1.4758
 IR Inten    --     42.5869                37.3720                70.4882

                     34                     35                     36
                      A                      A                      A
 Frequencies --   1503.1536              1514.3531              1520.1154
 Red. masses --      1.0488                 1.0561                 1.0526
 Frc consts  --      1.3962                 1.4269                 1.4330
 IR Inten    --      2.7893                10.2971                21.5258

                     37                     38                     39
                      A                      A                      A
 Frequencies --   1523.9001              1534.2476              1549.0835
 Red. masses --      1.0559                 1.0859                 1.4830
 Frc consts  --      1.4448                 1.5061                 2.0967
 IR Inten    --      7.0579                48.9642               545.7316

                     40                     41                     42
                      A                      A                      A
 Frequencies --   1579.7220              1805.1707              2137.6707
 Red. masses --      1.3094                 1.2204                 1.0367
 Frc consts  --      1.9253                 2.3430                 2.7911
 IR Inten    --    499.0527               564.3645               847.6567

                     43                     44                     45
                      A                      A                      A
 Frequencies --   3035.0950              3055.2796              3077.2191
 Red. masses --      1.0346                 1.0343                 1.0350
 Frc consts  --      5.6151                 5.6886                 5.7745
 IR Inten    --     35.8774                33.8991                 4.8384

                     46                     47                     48
                      A                      A                      A
 Frequencies --   3110.7327              3132.0810              3133.2310
 Red. masses --      1.0998                 1.1049                 1.1026
 Frc consts  --      6.2705                 6.3859                 6.3773
 IR Inten    --     26.2312                45.0828                 7.8616

                     49                     50                     51
                      A                      A                      A
 Frequencies --   3148.7800              3158.5432              3163.8684
 Red. masses --      1.1016                 1.1082                 1.1050
 Frc consts  --      6.4353                 6.5137                 6.5171
 IR Inten    --      9.4608                16.5989                11.9321

 - Thermochemistry -
 -------------------
 Temperature   298.150 Kelvin.  Pressure   1.00000 Atm.
 Atom     1 has atomic number  6 and mass  12.00000

 Molecular mass:   126.06922 amu.
 Principal axes and moments of inertia in atomic units:
                           1         2         3
     Eigenvalues --   665.366601332.301941601.67082
           X            0.99967   0.02402   0.00903
           Y           -0.02388   0.99960  -0.01482
           Z           -0.00938   0.01460   0.99985
 This molecule is an asymmetric top.
 Rotational symmetry number  1.
 Warning -- assumption of classical behavior for rotation
           may cause significant error
 Rotational temperatures (Kelvin)      0.13017     0.06501     0.05408
 Rotational constants (GHZ):           2.71240     1.35460     1.12679
    1 imaginary frequencies ignored.
 Zero-point vibrational energy     401715.0 (Joules/Mol)
                                   96.01218 (Kcal/Mol)
 Warning -- explicit consideration of  14 degrees of freedom as
           vibrations may cause significant error
 Vibrational temperatures:     95.20   156.80   161.27   221.21   280.65
          (Kelvin)            293.50   329.49   374.64   448.98   485.08
                              538.33   675.20   729.13   802.03   901.95
                              932.87  1152.55  1430.49  1493.61  1537.85
                             1557.83  1639.81  1668.70  1697.78  1706.24
                             1743.91  1751.64  1938.41  2051.96  2130.47
                             2133.49  2159.08  2162.70  2178.81  2187.10
                             2192.55  2207.44  2228.78  2272.86  2597.23
                             3075.63  4366.82  4395.86  4427.43  4475.65
                             4506.36  4508.01  4530.39  4544.43  4552.10

 Zero-point correction=                           0.153005 (Hartree/Particle)
 Thermal correction to Energy=                    0.163241
 Thermal correction to Enthalpy=                  0.164185
 Thermal correction to Gibbs Free Energy=         0.117788
 Sum of electronic and zero-point Energies=           -484.397840
 Sum of electronic and thermal Energies=              -484.387605
 Sum of electronic and thermal Enthalpies=            -484.386661
 Sum of electronic and thermal Free Energies=         -484.433058

                     E (Thermal)             CV                S
                      KCal/Mol        Cal/Mol-Kelvin    Cal/Mol-Kelvin
 Total                  102.435             35.532             97.650
 Electronic               0.000              0.000              0.000
 Translational            0.889              2.981             40.409
 Rotational               0.889              2.981             28.742
 Vibrational            100.658             29.571             28.500
 Vibration     1          0.598              1.970              4.264
 Vibration     2          0.606              1.942              3.287
 Vibration     3          0.607              1.939              3.232
 Vibration     4          0.619              1.899              2.625
 Vibration     5          0.636              1.847              2.179
 Vibration     6          0.640              1.834              2.097
 Vibration     7          0.652              1.797              1.887
 Vibration     8          0.668              1.745              1.659
 Vibration     9          0.700              1.651              1.351
 Vibration    10          0.718              1.601              1.226
 Vibration    11          0.745              1.525              1.063
 Vibration    12          0.826              1.318              0.740
 Vibration    13          0.862              1.235              0.641
 Vibration    14          0.913              1.123              0.529

 Optimization completed.
    -- Stationary point found.
 Normal termination of Gaussian 09 at Mon Feb 23 12:17:46 2015.
