 Gaussian 09, Revision D.01,
 Gaussian 09:  EM64L-G09RevD.01 24-Apr-2013

 ----------------------------------------------------------------------
 # opt=(calcfc,ts,noeigentest) freq=noraman b3lyp/gen geom=connectivity
  pseudo=read gfinput
 ----------------------------------------------------------------------

 -------------------------
 ts624cl-6-31+g(d)/lanl2dz
 -------------------------
 Symbolic Z-matrix:
 Charge =  0 Multiplicity = 1

 SCF Done:  E(RB3LYP) =  -399.610400513     A.U. after   13 cycles
 SCF Done:  E(RB3LYP) =  -399.623499590     A.U. after   12 cycles
 SCF Done:  E(RB3LYP) =  -399.626991385     A.U. after   12 cycles
 SCF Done:  E(RB3LYP) =  -399.626765958     A.U. after   12 cycles
 SCF Done:  E(RB3LYP) =  -399.627374692     A.U. after   12 cycles
 SCF Done:  E(RB3LYP) =  -399.627508521     A.U. after   11 cycles
 SCF Done:  E(RB3LYP) =  -399.627515606     A.U. after    9 cycles
 SCF Done:  E(RB3LYP) =  -399.627518024     A.U. after    9 cycles
 SCF Done:  E(RB3LYP) =  -399.626411871     A.U. after   12 cycles
 SCF Done:  E(RB3LYP) =  -399.627375086     A.U. after   11 cycles
 SCF Done:  E(RB3LYP) =  -399.627410897     A.U. after   11 cycles
 SCF Done:  E(RB3LYP) =  -399.627516180     A.U. after   11 cycles
 SCF Done:  E(RB3LYP) =  -399.627516689     A.U. after    9 cycles
 SCF Done:  E(RB3LYP) =  -399.627517608     A.U. after    9 cycles
 Optimization completed.
    -- Stationary point found.
 Normal termination of Gaussian 09 at Thu Feb 19 12:34:17 2015.

 ------------------------------------------------------------------
 #N Geom=AllCheck Guess=TCheck SCRF=Check GenChk RB3LYP/ChkBas Freq
 ------------------------------------------------------------------

 Structure from the checkpoint file:  "/lustre/SCRATCH5/gau/Gau-6283.chk"
 -------------------------
 ts624cl-6-31+g(d)/lanl2dz
 -------------------------
 Charge =  0 Multiplicity = 1

                         Standard orientation:
 ---------------------------------------------------------------------
 Center     Atomic      Atomic             Coordinates (Angstroms)
 Number     Number       Type             X           Y           Z
 ---------------------------------------------------------------------
      1          6           0        0.794204    0.198554    0.446755
      2          6           0       -0.480070    2.077997   -0.690931
      3          1           0       -1.237298    2.236509   -1.463741
      4          1           0       -0.897602    2.310173    0.296750
      5          1           0        0.375896    2.726111   -0.895685
      6          6           0        1.982500    1.111724    0.645869
      7          1           0        2.685695    0.602284    1.308324
      8          1           0        2.481071    1.337349   -0.298460
      9          1           0        1.655748    2.035776    1.137705
     10          8           0       -0.073842    0.700304   -0.779521
     11          8           0       -1.761010   -0.875480   -0.083263
     12          6           0       -3.114542   -0.450210    0.190304
     13          1           0       -3.633160   -0.372430   -0.766627
     14          1           0       -3.589509   -1.217047    0.805040
     15          1           0       -3.125135    0.511873    0.713187
     16          1           0       -1.144734   -0.817478    0.765676
     17          1           0       -1.097384   -0.116548   -0.632489
     18         17           0        1.563817   -1.433981   -0.525672
     19          8           0        0.065973   -0.135735    1.414630
 ---------------------------------------------------------------------

 SCF Done:  E(RB3LYP) =  -399.627517608     A.U. after    1 cycles

 The electronic state is 1-A.
 Alpha  occ. eigenvalues --  -19.22665 -19.20186 -19.13655 -10.34291 -10.27334
 Alpha  occ. eigenvalues --  -10.25692 -10.18852  -1.11380  -1.06901  -1.01889
 Alpha  occ. eigenvalues --   -0.77578  -0.75216  -0.72744  -0.71469  -0.58432
 Alpha  occ. eigenvalues --   -0.57720  -0.56610  -0.50024  -0.49634  -0.48488
 Alpha  occ. eigenvalues --   -0.48209  -0.45070  -0.43505  -0.43005  -0.41546
 Alpha  occ. eigenvalues --   -0.38869  -0.38318  -0.36726  -0.32198  -0.29172
 Alpha  occ. eigenvalues --   -0.27145  -0.26497  -0.25566
 Alpha virt. eigenvalues --   -0.01480  -0.00026   0.00634   0.00875   0.02509
 Alpha virt. eigenvalues --    0.03011   0.03970   0.04850   0.06542   0.07122
 Alpha virt. eigenvalues --    0.08274   0.08560   0.09269   0.09937   0.11296

 Mulliken charges:
               1
     1  C   -0.009958
     2  C   -0.396444
     3  H    0.206593
     4  H    0.217551
     5  H    0.219253
     6  C   -0.617647
     7  H    0.251249
     8  H    0.238460
     9  H    0.213147
    10  O   -0.482038
    11  O   -0.747425
    12  C   -0.362155
    13  H    0.219173
    14  H    0.223443
    15  H    0.208380
    16  H    0.570138
    17  H    0.607009
    18  Cl  -0.122552
    19  O   -0.436178
 Sum of Mulliken charges =   0.00000

 Dipole moment (field-independent basis, Debye):
    X=             -5.2075    Y=              4.6861    Z=             -0.1025  Tot=              7.0063
 Quadrupole moment (field-independent basis, Debye-Ang):
   XX=            -45.8471   YY=            -56.5448   ZZ=            -61.5267
   XY=              5.3584   XZ=              1.7531   YZ=             -2.6936

  Exact polarizability:  88.200  -3.108  83.411  -1.644   3.011  69.804
 Approx polarizability: 105.916  -9.402 112.782  -9.029  10.296 105.904

 ******    1 imaginary frequencies (negative Signs) ******

                      1                      2                      3
                      A                      A                      A
 Frequencies --   -828.9507                57.1129               102.3908
 Red. masses --      1.3598                 4.7271                 2.7276
 Frc consts  --      0.5505                 0.0091                 0.0168
 IR Inten    --    618.6672                 2.6665                 0.2263

                      4                      5                      6
                      A                      A                      A
 Frequencies --    119.7103               141.6174               173.8420
 Red. masses --      1.4530                 1.8055                 3.8585
 Frc consts  --      0.0123                 0.0213                 0.0687
 IR Inten    --      1.5918                 7.8651                 4.7950

                      7                      8                      9
                      A                      A                      A
 Frequencies --    181.6901               228.4585               251.2378
 Red. masses --      1.0853                 3.2756                 2.7687
 Frc consts  --      0.0211                 0.1007                 0.1030
 IR Inten    --      0.0941                59.9006                75.0266

                     10                     11                     12
                      A                      A                      A
 Frequencies --    281.5226               285.7774               313.1787
 Red. masses --      1.9152                 2.1116                 3.8826
 Frc consts  --      0.0894                 0.1016                 0.2244
 IR Inten    --      3.7004                27.5294                 4.5319

                     13                     14                     15
                      A                      A                      A
 Frequencies --    349.9442               386.2082               529.7447
 Red. masses --      4.5499                 4.4990                 4.6349
 Frc consts  --      0.3283                 0.3954                 0.7663
 IR Inten    --     77.6560                32.5506                67.5755

                     16                     17                     18
                      A                      A                      A
 Frequencies --    583.0677               622.3935               655.9395
 Red. masses --      5.3865                 3.7177                 2.9447
 Frc consts  --      1.0789                 0.8485                 0.7465
 IR Inten    --    226.3482                83.1372               145.5627

                     19                     20                     21
                      A                      A                      A
 Frequencies --    973.2761              1009.5554              1040.7105
 Red. masses --      4.0896                 1.8505                 3.3816
 Frc consts  --      2.2825                 1.1112                 2.1579
 IR Inten    --    143.1266               406.3857                33.0178

                     22                     23                     24
                      A                      A                      A
 Frequencies --   1066.2393              1098.6706              1136.6753
 Red. masses --      1.9660                 1.4984                 1.6874
 Frc consts  --      1.3169                 1.0657                 1.2845
 IR Inten    --    191.1931               173.9426                63.3414

                     25                     26                     27
                      A                      A                      A
 Frequencies --   1167.1879              1178.4107              1200.5323
 Red. masses --      1.2029                 1.3091                 1.4701
 Frc consts  --      0.9655                 1.0711                 1.2484
 IR Inten    --    114.4355                 4.6846                90.1152

                     28                     29                     30
                      A                      A                      A
 Frequencies --   1211.5831              1408.3145              1424.4480
 Red. masses --      1.3176                 1.3123                 1.2655
 Frc consts  --      1.1396                 1.5335                 1.5128
 IR Inten    --    197.0641               427.5948               120.0271

                     31                     32                     33
                      A                      A                      A
 Frequencies --   1459.5743              1480.5734              1497.8746
 Red. masses --      1.1078                 1.1373                 1.0666
 Frc consts  --      1.3905                 1.4688                 1.4100
 IR Inten    --    164.1061                 6.5846                31.3340

                     34                     35                     36
                      A                      A                      A
 Frequencies --   1504.0985              1511.1453              1518.8841
 Red. masses --      1.0642                 1.0665                 1.0503
 Frc consts  --      1.4185                 1.4349                 1.4276
 IR Inten    --     18.6712                 9.2190                 3.9988

                     37                     38                     39
                      A                      A                      A
 Frequencies --   1521.1921              1532.3710              1572.2602
 Red. masses --      1.0596                 1.0562                 1.1774
 Frc consts  --      1.4446                 1.4613                 1.7148
 IR Inten    --     37.7159                10.1510              1065.1431

                     40                     41                     42
                      A                      A                      A
 Frequencies --   1572.6051              1918.5770              2544.5218
 Red. masses --      2.5646                 1.1300                 1.0659
 Frc consts  --      3.7369                 2.4507                 4.0660
 IR Inten    --    198.5043               208.5587              1493.5060

                     43                     44                     45
                      A                      A                      A
 Frequencies --   3046.5788              3065.1053              3071.8933
 Red. masses --      1.0342                 1.0418                 1.0332
 Frc consts  --      5.6554                 5.7666                 5.7446
 IR Inten    --     32.3358                20.3581                22.4840

                     46                     47                     48
                      A                      A                      A
 Frequencies --   3127.9773              3145.4929              3150.6370
 Red. masses --      1.1008                 1.0943                 1.1062
 Frc consts  --      6.3457                 6.3790                 6.4696
 IR Inten    --     20.0739                10.4440                18.2608

                     49                     50                     51
                      A                      A                      A
 Frequencies --   3155.7159              3177.3346              3181.4871
 Red. masses --      1.1032                 1.1047                 1.1089
 Frc consts  --      6.4732                 6.5708                 6.6131
 IR Inten    --     13.1652                 4.7087                 9.0647

 - Thermochemistry -
 -------------------
 Temperature   298.150 Kelvin.  Pressure   1.00000 Atm.
 Atom     1 has atomic number  6 and mass  12.00000

 Molecular mass:   142.03967 amu.
 Principal axes and moments of inertia in atomic units:
                           1         2         3
     Eigenvalues --   932.544561573.297671978.71072
           X            0.99795   0.06274   0.01256
           Y           -0.06231   0.99754  -0.03211
           Z           -0.01454   0.03126   0.99941
 This molecule is an asymmetric top.
 Rotational symmetry number  1.
 Warning -- assumption of classical behavior for rotation
           may cause significant error
 Rotational temperatures (Kelvin)      0.09288     0.05505     0.04377
 Rotational constants (GHZ):           1.93529     1.14711     0.91208
    1 imaginary frequencies ignored.
 Zero-point vibrational energy     400362.2 (Joules/Mol)
                                   95.68887 (Kcal/Mol)
 Warning -- explicit consideration of  15 degrees of freedom as
           vibrations may cause significant error
 Vibrational temperatures:     82.17   147.32   172.24   203.76   250.12
          (Kelvin)            261.41   328.70   361.47   405.05   411.17
                              450.59   503.49   555.67   762.18   838.90
                              895.48   943.75  1400.33  1452.52  1497.35
                             1534.08  1580.74  1635.42  1679.32  1695.47
                             1727.30  1743.20  2026.25  2049.46  2100.00
                             2130.21  2155.10  2164.06  2174.20  2185.33
                             2188.65  2204.74  2262.13  2262.63  2760.40
                             3660.99  4383.34  4410.00  4419.76  4500.46
                             4525.66  4533.06  4540.37  4571.47  4577.44

 Zero-point correction=                           0.152490 (Hartree/Particle)
 Thermal correction to Energy=                    0.163360
 Thermal correction to Enthalpy=                  0.164304
 Thermal correction to Gibbs Free Energy=         0.116051
 Sum of electronic and zero-point Energies=           -399.475028
 Sum of electronic and thermal Energies=              -399.464158
 Sum of electronic and thermal Enthalpies=            -399.463214
 Sum of electronic and thermal Free Energies=         -399.511467

                     E (Thermal)             CV                S
                      KCal/Mol        Cal/Mol-Kelvin    Cal/Mol-Kelvin
 Total                  102.510             37.038            101.558
 Electronic               0.000              0.000              0.000
 Translational            0.889              2.981             40.764
 Rotational               0.889              2.981             29.453
 Vibrational            100.732             31.076             31.341
 Vibration     1          0.596              1.975              4.555
 Vibration     2          0.604              1.947              3.408
 Vibration     3          0.609              1.933              3.105
 Vibration     4          0.615              1.912              2.782
 Vibration     5          0.627              1.875              2.394
 Vibration     6          0.630              1.865              2.311
 Vibration     7          0.651              1.798              1.891
 Vibration     8          0.663              1.761              1.722
 Vibration     9          0.681              1.708              1.524
 Vibration    10          0.684              1.700              1.499
 Vibration    11          0.701              1.649              1.345
 Vibration    12          0.727              1.575              1.166
 Vibration    13          0.755              1.500              1.015
 Vibration    14          0.885              1.184              0.588
 Vibration    15          0.940              1.068              0.480

 Optimization completed.
    -- Stationary point found.
 Normal termination of Gaussian 09 at Thu Feb 19 12:35:46 2015.
