 Gaussian 09, Revision D.01,
 Gaussian 09:  ES64L-G09RevD.01 24-Apr-2013

 ---------------------------------------------------------------------
 # freq x3lyp/6-31+g(d) scrf=(cpcm,solvent=methanol) geom=connectivity
 ---------------------------------------------------------------------

 -------------------
 Title Card Required
 -------------------
 Symbolic Z-matrix:
 Charge =  0 Multiplicity = 1

                         Standard orientation:
 ---------------------------------------------------------------------
 Center     Atomic      Atomic             Coordinates (Angstroms)
 Number     Number       Type             X           Y           Z
 ---------------------------------------------------------------------
      1          8           0        0.000000    0.000000    0.117155
      2          1           0        0.000000    0.771206   -0.468621
      3          1           0        0.000000   -0.771206   -0.468621
 ---------------------------------------------------------------------

 SCF Done:  E(RX3LYP) =  -76.4014076610     A.U. after    8 cycles

 The electronic state is 1-A1.
 Alpha  occ. eigenvalues --  -19.20120  -1.02918  -0.54608  -0.40437  -0.32812
 Alpha virt. eigenvalues --    0.03494   0.11904   0.13874   0.14593   0.20615
 Alpha virt. eigenvalues --    0.24661   0.96117   1.04715   1.11137   1.11371
 Alpha virt. eigenvalues --    1.14344   1.24311   1.71404   1.72327   1.75934

 Mulliken charges:
               1
     1  O   -0.991784
     2  H    0.495892
     3  H    0.495892
 Sum of Mulliken charges =   0.00000

 Dipole moment (field-independent basis, Debye):
    X=              0.0000    Y=              0.0000    Z=             -2.5003  Tot=              2.5003
 Quadrupole moment (field-independent basis, Debye-Ang):
   XX=             -8.0132   YY=             -4.2548   ZZ=             -6.5472
   XY=              0.0000   XZ=              0.0000   YZ=              0.0000

  Exact polarizability:   7.359   0.000   8.338   0.000   0.000   6.985
 Approx polarizability:   6.672   0.000   9.083   0.000   0.000   7.142

                      1                      2                      3
                     A1                     A1                     B2
 Frequencies --   1650.3917              3755.6472              3866.4481
 Red. masses --      1.0827                 1.0452                 1.0829
 Frc consts  --      1.7375                 8.6856                 9.5382
 IR Inten    --    131.2198                24.2010               108.2772

 - Thermochemistry -
 -------------------
 Temperature   298.150 Kelvin.  Pressure   1.00000 Atm.
 Atom     1 has atomic number  8 and mass  15.99491

 Molecular mass:    18.01056 amu.
 Principal axes and moments of inertia in atomic units:
                           1         2         3
     Eigenvalues --     2.19346   4.28108   6.47455
           X            0.00000   0.00000   1.00000
           Y            1.00000   0.00000   0.00000
           Z            0.00000   1.00000   0.00000
 This molecule is an asymmetric top.
 Rotational symmetry number  2.
 Rotational temperatures (Kelvin)     39.48722    20.23175    13.37758
 Rotational constants (GHZ):         822.78111   421.56181   278.74398
 Zero-point vibrational energy      55461.8 (Joules/Mol)
                                   13.25569 (Kcal/Mol)
 Vibrational temperatures:   2374.54  5403.53  5562.95
          (Kelvin)

 Zero-point correction=                           0.021124 (Hartree/Particle)
 Thermal correction to Energy=                    0.023959
 Thermal correction to Enthalpy=                  0.024904
 Thermal correction to Gibbs Free Energy=         0.003465
 Sum of electronic and zero-point Energies=            -76.380283
 Sum of electronic and thermal Energies=               -76.377448
 Sum of electronic and thermal Enthalpies=             -76.376504
 Sum of electronic and thermal Free Energies=          -76.397943

                     E (Thermal)             CV                S
                      KCal/Mol        Cal/Mol-Kelvin    Cal/Mol-Kelvin
 Total                   15.035              6.005             45.121
 Electronic               0.000              0.000              0.000
 Translational            0.889              2.981             34.608
 Rotational               0.889              2.981             10.507
 Vibrational             13.257              0.044              0.006

 Normal termination of Gaussian 09 at Sat Sep 26 14:52:07 2015.
