 Gaussian 09, Revision D.01,
 Gaussian 09:  ES64L-G09RevD.01 24-Apr-2013

 ---------------------------------------------------------------
 # x3lyp/6-31+g(d) scrf=(solvent=methanol,smd) geom=connectivity
 ---------------------------------------------------------------

 -------------------
 Title Card Required
 -------------------
 Symbolic Z-matrix:
 Charge =  0 Multiplicity = 1

                         Standard orientation:
 ---------------------------------------------------------------------
 Center     Atomic      Atomic             Coordinates (Angstroms)
 Number     Number       Type             X           Y           Z
 ---------------------------------------------------------------------
      1          8           0        0.000000    0.000000    0.117155
      2          1           0        0.000000    0.771206   -0.468621
      3          1           0        0.000000   -0.771206   -0.468621
 ---------------------------------------------------------------------

 SCF Done:  E(RX3LYP) =  -76.4077530695     A.U. after    8 cycles

 The electronic state is 1-A1.
 Alpha  occ. eigenvalues --  -19.19557  -1.02293  -0.53790  -0.40325  -0.32709
 Alpha virt. eigenvalues --    0.04435   0.12773   0.14237   0.15040   0.21754
 Alpha virt. eigenvalues --    0.25787   0.97306   1.05960   1.11281   1.11360
 Alpha virt. eigenvalues --    1.14415   1.24537   1.71498   1.72496   1.75892

 Mulliken charges:
               1
     1  O   -1.044778
     2  H    0.522389
     3  H    0.522389
 Sum of Mulliken charges =   0.00000

 Dipole moment (field-independent basis, Debye):
    X=              0.0000    Y=              0.0000    Z=             -2.6845  Tot=              2.6845
 Quadrupole moment (field-independent basis, Debye-Ang):
   XX=             -8.0345   YY=             -4.1610   ZZ=             -6.5334
   XY=              0.0000   XZ=              0.0000   YZ=              0.0000

 Normal termination of Gaussian 09 at Sat Sep 26 14:54:36 2015.
