 Gaussian 09, Revision D.01,
 Gaussian 09:  ES64L-G09RevD.01 24-Apr-2013

 ---------------------------------------------------------------
 # x3lyp/6-31+g(d) scrf=(solvent=methanol,smd) geom=connectivity
 ---------------------------------------------------------------

 -------------------
 Title Card Required
 -------------------
 Symbolic Z-matrix:
 Charge =  1 Multiplicity = 1

                         Standard orientation:
 ---------------------------------------------------------------------
 Center     Atomic      Atomic             Coordinates (Angstroms)
 Number     Number       Type             X           Y           Z
 ---------------------------------------------------------------------
      1          6           0       -1.806539   -0.582573    0.000441
      2          1           0       -2.415526   -0.149737   -0.800967
      3          1           0       -2.304340   -0.343001    0.949356
      4          1           0       -1.722822   -1.663072   -0.113878
      5          6           0       -0.467958    0.045522   -0.004753
      6          8           0        0.566151   -0.705505   -0.005087
      7          6           0        1.943269   -0.188788    0.003318
      8          1           0        2.107509    0.385132    0.918613
      9          1           0        2.562899   -1.082496    0.002283
     10          1           0        2.115433    0.392612   -0.905777
     11          8           0       -0.419682    1.339767   -0.001142
     12          1           0        0.472467    1.741497    0.006165
 ---------------------------------------------------------------------

 SCF Done:  E(RX3LYP) =  -268.703861811     A.U. after   11 cycles

 The electronic state is 1-A.
 Alpha  occ. eigenvalues --  -19.30628 -19.30220 -10.43385 -10.29049 -10.24068
 Alpha  occ. eigenvalues --   -1.20878  -1.12963  -0.83384  -0.75665  -0.68581
 Alpha  occ. eigenvalues --   -0.61163  -0.54991  -0.54912  -0.46953  -0.46459
 Alpha  occ. eigenvalues --   -0.45122  -0.43203  -0.42023  -0.39925  -0.38518
 Alpha virt. eigenvalues --   -0.06851  -0.00324   0.01822   0.03694   0.04404
 Alpha virt. eigenvalues --    0.04592   0.06443   0.07894   0.07956   0.08475
 Alpha virt. eigenvalues --    0.11113   0.11973   0.12831   0.15070   0.15675

 Mulliken charges:
               1
     1  C   -0.802671
     2  H    0.292840
     3  H    0.299568
     4  H    0.278642
     5  C    0.807494
     6  O   -0.255654
     7  C   -0.491191
     8  H    0.277797
     9  H    0.274875
    10  H    0.278050
    11  O   -0.547978
    12  H    0.588228
 Sum of Mulliken charges =   1.00000

 Dipole moment (field-independent basis, Debye):
    X=              1.9425    Y=              1.4753    Z=              0.0677  Tot=              2.4401
 Quadrupole moment (field-independent basis, Debye-Ang):
   XX=            -14.6439   YY=            -25.2284   ZZ=            -27.5152
   XY=              4.1273   XZ=             -0.0690   YZ=             -0.0109

 Normal termination of Gaussian 09 at Sat Sep 26 16:08:53 2015.
