 Gaussian 09, Revision D.01,
 Gaussian 09:  ES64L-G09RevD.01 24-Apr-2013

 --------------------------------------------
 # opt freq x3lyp/6-31+g(d) geom=connectivity
 --------------------------------------------

 -------------------
 Title Card Required
 -------------------
 Symbolic Z-matrix:
 Charge =  1 Multiplicity = 1

 SCF Done:  E(RX3LYP) =  -268.563177268     A.U. after   12 cycles
 SCF Done:  E(RX3LYP) =  -268.588064693     A.U. after   12 cycles
 SCF Done:  E(RX3LYP) =  -268.592077875     A.U. after   12 cycles
 SCF Done:  E(RX3LYP) =  -268.596695511     A.U. after   11 cycles
 SCF Done:  E(RX3LYP) =  -268.597688872     A.U. after   12 cycles
 SCF Done:  E(RX3LYP) =  -268.598215668     A.U. after   10 cycles
 SCF Done:  E(RX3LYP) =  -268.598219143     A.U. after   10 cycles
 SCF Done:  E(RX3LYP) =  -268.598256647     A.U. after    9 cycles
 SCF Done:  E(RX3LYP) =  -268.598271958     A.U. after    8 cycles
 SCF Done:  E(RX3LYP) =  -268.598289348     A.U. after    9 cycles
 SCF Done:  E(RX3LYP) =  -268.598296046     A.U. after    9 cycles
 SCF Done:  E(RX3LYP) =  -268.598299661     A.U. after    9 cycles
 SCF Done:  E(RX3LYP) =  -268.598303129     A.U. after    9 cycles
 SCF Done:  E(RX3LYP) =  -268.598305268     A.U. after    9 cycles
 SCF Done:  E(RX3LYP) =  -268.598307891     A.U. after    8 cycles
 SCF Done:  E(RX3LYP) =  -268.598310069     A.U. after    9 cycles
 SCF Done:  E(RX3LYP) =  -268.598310221     A.U. after    8 cycles
 SCF Done:  E(RX3LYP) =  -268.598310196     A.U. after    7 cycles
 SCF Done:  E(RX3LYP) =  -268.598310178     A.U. after    6 cycles
 Optimization completed.
    -- Stationary point found.
 Normal termination of Gaussian 09 at Sat Sep 26 15:46:12 2015.

 ---------------------------------------------------------------------
 #N Geom=AllCheck Guess=TCheck SCRF=Check GenChk RX3LYP/6-31+G(d) Freq
 ---------------------------------------------------------------------

 Structure from the checkpoint file:  "/data/sawal/gaussian/Gau-20116.chk"
 -------------------
 Title Card Required
 -------------------
 Charge =  1 Multiplicity = 1

                         Standard orientation:
 ---------------------------------------------------------------------
 Center     Atomic      Atomic             Coordinates (Angstroms)
 Number     Number       Type             X           Y           Z
 ---------------------------------------------------------------------
      1          6           0        1.806539   -0.582573   -0.000441
      2          1           0        2.415526   -0.149737    0.800967
      3          1           0        2.304340   -0.343001   -0.949356
      4          1           0        1.722822   -1.663072    0.113878
      5          6           0        0.467958    0.045522    0.004753
      6          8           0       -0.566151   -0.705505    0.005087
      7          6           0       -1.943269   -0.188788   -0.003318
      8          1           0       -2.107509    0.385132   -0.918613
      9          1           0       -2.562899   -1.082496   -0.002283
     10          1           0       -2.115433    0.392612    0.905777
     11          8           0        0.419682    1.339767    0.001142
     12          1           0       -0.472467    1.741497   -0.006165
 ---------------------------------------------------------------------

 SCF Done:  E(RX3LYP) =  -268.598310178     A.U. after    1 cycles

 The electronic state is 1-A.
 Alpha  occ. eigenvalues --  -19.49707 -19.49514 -10.62209 -10.48453 -10.42024
 Alpha  occ. eigenvalues --   -1.40261  -1.32268  -1.02290  -0.94578  -0.87919
 Alpha  occ. eigenvalues --   -0.80418  -0.74174  -0.73607  -0.66251  -0.65307
 Alpha  occ. eigenvalues --   -0.63744  -0.61281  -0.60462  -0.58803  -0.57735
 Alpha virt. eigenvalues --   -0.25817  -0.18661  -0.15008  -0.12122  -0.10929
 Alpha virt. eigenvalues --   -0.10844  -0.08845  -0.07502  -0.07049  -0.06692
 Alpha virt. eigenvalues --   -0.03751  -0.03588  -0.02219  -0.01680  -0.01140

 Mulliken charges:
               1
     1  C   -0.720577
     2  H    0.294866
     3  H    0.299056
     4  H    0.286503
     5  C    0.677926
     6  O   -0.231636
     7  C   -0.465875
     8  H    0.259924
     9  H    0.295887
    10  H    0.260490
    11  O   -0.489152
    12  H    0.532589
 Sum of Mulliken charges =   1.00000

 Dipole moment (field-independent basis, Debye):
    X=             -1.5333    Y=              0.9217    Z=             -0.0548  Tot=              1.7899
 Quadrupole moment (field-independent basis, Debye-Ang):
   XX=            -13.1978   YY=            -24.7587   ZZ=            -27.3875
   XY=             -3.5034   XZ=             -0.0563   YZ=              0.0098

  Exact polarizability:  50.459   0.388  38.919  -0.186   0.058  29.767
 Approx polarizability:  60.285   3.429  55.969  -0.343   0.094  40.384

                      1                      2                      3
                      A                      A                      A
 Frequencies --     31.1351               159.3229               186.3209
 Red. masses --      1.0656                 1.0655                 2.9988
 Frc consts  --      0.0006                 0.0159                 0.0613
 IR Inten    --      2.4710                 0.2691                 1.4000

                      4                      5                      6
                      A                      A                      A
 Frequencies --    265.8596               412.3016               557.6571
 Red. masses --      3.1295                 2.9591                 1.2497
 Frc consts  --      0.1303                 0.2964                 0.2290
 IR Inten    --      2.7711                 6.1224                68.8099

                      7                      8                      9
                      A                      A                      A
 Frequencies --    595.0249               642.4432               842.5390
 Red. masses --      3.4205                 2.1802                 4.1497
 Frc consts  --      0.7135                 0.5302                 1.7356
 IR Inten    --     23.3286                76.2816                32.1076

                     10                     11                     12
                      A                      A                      A
 Frequencies --    967.5754              1055.5985              1072.2893
 Red. masses --      3.6212                 1.5706                 1.7500
 Frc consts  --      1.9974                 1.0311                 1.1855
 IR Inten    --     26.2050                24.2626                13.3639

                     13                     14                     15
                      A                      A                      A
 Frequencies --   1164.2546              1165.5622              1218.9722
 Red. masses --      1.3795                 1.2633                 1.5698
 Frc consts  --      1.1017                 1.0112                 1.3743
 IR Inten    --    104.7324                 1.5390                28.5266

                     16                     17                     18
                      A                      A                      A
 Frequencies --   1414.5534              1442.9942              1472.9221
 Red. masses --      1.1884                 1.2646                 1.0547
 Frc consts  --      1.4011                 1.5514                 1.3482
 IR Inten    --     49.5623               154.7589                11.7392

                     19                     20                     21
                      A                      A                      A
 Frequencies --   1475.1507              1493.0954              1523.6540
 Red. masses --      1.1523                 1.1282                 1.0445
 Frc consts  --      1.4773                 1.4819                 1.4287
 IR Inten    --     26.8326                26.5452                23.3878

                     22                     23                     24
                      A                      A                      A
 Frequencies --   1532.6687              1633.9162              3067.2286
 Red. masses --      3.2720                 4.1101                 1.0406
 Frc consts  --      4.5286                 6.4649                 5.7678
 IR Inten    --    135.4742               384.4146                25.3275

                     25                     26                     27
                      A                      A                      A
 Frequencies --   3087.4044              3130.5649              3185.6336
 Red. masses --      1.0304                 1.0971                 1.1131
 Frc consts  --      5.7868                 6.3351                 6.6555
 IR Inten    --      1.7537                 9.8933                 0.2456

                     28                     29                     30
                      A                      A                      A
 Frequencies --   3204.1832              3233.2703              3653.5682
 Red. masses --      1.1038                 1.1057                 1.0662
 Frc consts  --      6.6767                 6.8104                 8.3858
 IR Inten    --      5.7077                 4.2988               138.6444

 - Thermochemistry -
 -------------------
 Temperature   298.150 Kelvin.  Pressure   1.00000 Atm.
 Atom     1 has atomic number  6 and mass  12.00000

 Molecular mass:    75.04460 amu.
 Principal axes and moments of inertia in atomic units:
                           1         2         3
     Eigenvalues --   184.73793 458.94515 620.49898
           X            0.99886  -0.04780  -0.00023
           Y            0.04780   0.99886   0.00025
           Z            0.00022  -0.00026   1.00000
 This molecule is an asymmetric top.
 Rotational symmetry number  1.
 Rotational temperatures (Kelvin)      0.46885     0.18872     0.13959
 Rotational constants (GHZ):           9.76920     3.93237     2.90853
 Zero-point vibrational energy     268487.9 (Joules/Mol)
                                   64.17014 (Kcal/Mol)
 Warning -- explicit consideration of   7 degrees of freedom as
           vibrations may cause significant error
 Vibrational temperatures:     44.80   229.23   268.07   382.51   593.21
          (Kelvin)            802.34   856.11   924.33  1212.22  1392.12
                             1518.77  1542.78  1675.10  1676.98  1753.83
                             2035.22  2076.14  2119.20  2122.41  2148.23
                             2192.20  2205.17  2350.84  4413.05  4442.08
                             4504.18  4583.41  4610.10  4651.95  5256.66

 Zero-point correction=                           0.102262 (Hartree/Particle)
 Thermal correction to Energy=                    0.108688
 Thermal correction to Enthalpy=                  0.109632
 Thermal correction to Gibbs Free Energy=         0.071870
 Sum of electronic and zero-point Energies=           -268.496049
 Sum of electronic and thermal Energies=              -268.489622
 Sum of electronic and thermal Enthalpies=            -268.488678
 Sum of electronic and thermal Free Energies=         -268.526440

                     E (Thermal)             CV                S
                      KCal/Mol        Cal/Mol-Kelvin    Cal/Mol-Kelvin
 Total                   68.203             20.872             79.476
 Electronic               0.000              0.000              0.000
 Translational            0.889              2.981             38.862
 Rotational               0.889              2.981             25.468
 Vibrational             66.425             14.910             15.146
 Vibration     1          0.594              1.983              5.756
 Vibration     2          0.621              1.892              2.558
 Vibration     3          0.632              1.859              2.264
 Vibration     4          0.672              1.736              1.623
 Vibration     5          0.776              1.444              0.919
 Vibration     6          0.913              1.123              0.529
 Vibration     7          0.953              1.042              0.458

 Optimization completed.
    -- Stationary point found.
 Normal termination of Gaussian 09 at Sat Sep 26 15:46:34 2015.
