 Gaussian 09, Revision D.01,
 Gaussian 09:  ES64L-G09RevD.01 24-Apr-2013

 ---------------------------------------------------------------------
 # freq x3lyp/6-31+g(d) scrf=(cpcm,solvent=methanol) geom=connectivity
 ---------------------------------------------------------------------

 -------------------
 Title Card Required
 -------------------
 Symbolic Z-matrix:
 Charge =  1 Multiplicity = 1

                         Standard orientation:
 ---------------------------------------------------------------------
 Center     Atomic      Atomic             Coordinates (Angstroms)
 Number     Number       Type             X           Y           Z
 ---------------------------------------------------------------------
      1          6           0       -1.806539   -0.582573    0.000441
      2          1           0       -2.415526   -0.149737   -0.800967
      3          1           0       -2.304340   -0.343001    0.949356
      4          1           0       -1.722822   -1.663072   -0.113878
      5          6           0       -0.467958    0.045522   -0.004753
      6          8           0        0.566151   -0.705505   -0.005087
      7          6           0        1.943269   -0.188788    0.003318
      8          1           0        2.107509    0.385132    0.918613
      9          1           0        2.562899   -1.082496    0.002283
     10          1           0        2.115433    0.392612   -0.905777
     11          8           0       -0.419682    1.339767   -0.001142
     12          1           0        0.472467    1.741497    0.006165
 ---------------------------------------------------------------------

 SCF Done:  E(RX3LYP) =  -268.686134815     A.U. after   12 cycles

 The electronic state is 1-A.
 Alpha  occ. eigenvalues --  -19.32946 -19.32886 -10.45772 -10.31646 -10.26300
 Alpha  occ. eigenvalues --   -1.23473  -1.15521  -0.85852  -0.78122  -0.71297
 Alpha  occ. eigenvalues --   -0.63670  -0.57413  -0.57308  -0.49502  -0.48855
 Alpha  occ. eigenvalues --   -0.47503  -0.45490  -0.44382  -0.42290  -0.40995
 Alpha virt. eigenvalues --   -0.09242  -0.01933   0.00548   0.02716   0.03329
 Alpha virt. eigenvalues --    0.03916   0.05383   0.06648   0.07183   0.07215
 Alpha virt. eigenvalues --    0.10439   0.10714   0.11768   0.13461   0.14056

 Mulliken charges:
               1
     1  C   -0.754646
     2  H    0.288096
     3  H    0.294601
     4  H    0.275366
     5  C    0.741856
     6  O   -0.234897
     7  C   -0.476142
     8  H    0.271496
     9  H    0.277237
    10  H    0.271760
    11  O   -0.510734
    12  H    0.556008
 Sum of Mulliken charges =   1.00000

 Dipole moment (field-independent basis, Debye):
    X=              1.8109    Y=              1.2516    Z=              0.0641  Tot=              2.2023
 Quadrupole moment (field-independent basis, Debye-Ang):
   XX=            -14.1498   YY=            -25.0257   ZZ=            -27.4042
   XY=              3.8127   XZ=             -0.0647   YZ=             -0.0103

  Exact polarizability:  59.510  -1.574  48.347  -0.256  -0.075  36.424
 Approx polarizability:  59.886  -3.834  56.254  -0.329  -0.090  40.471

                      1                      2                      3
                      A                      A                      A
 Frequencies --    104.2383               157.5130               187.9247
 Red. masses --      1.0953                 1.0907                 2.5863
 Frc consts  --      0.0070                 0.0159                 0.0538
 IR Inten    --      2.9551                 0.0029                 0.1629

                      4                      5                      6
                      A                      A                      A
 Frequencies --    253.8255               415.7117               518.7814
 Red. masses --      3.1162                 2.9868                 1.1373
 Frc consts  --      0.1183                 0.3041                 0.1803
 IR Inten    --      3.1721                 7.8249               143.2845

                      7                      8                      9
                      A                      A                      A
 Frequencies --    595.3099               638.7134               841.5538
 Red. masses --      3.4689                 2.7375                 4.2667
 Frc consts  --      0.7243                 0.6580                 1.7803
 IR Inten    --     31.3618                65.2522                45.2237

                     10                     11                     12
                      A                      A                      A
 Frequencies --    968.3815              1060.4774              1077.3890
 Red. masses --      3.6040                 1.5493                 1.7275
 Frc consts  --      1.9912                 1.0266                 1.1814
 IR Inten    --     33.2830                41.1642                21.6149

                     13                     14                     15
                      A                      A                      A
 Frequencies --   1161.9713              1178.6797              1226.5774
 Red. masses --      1.4121                 1.2581                 1.5473
 Frc consts  --      1.1233                 1.0298                 1.3716
 IR Inten    --    146.7825                 1.4890                38.0455

                     16                     17                     18
                      A                      A                      A
 Frequencies --   1411.6088              1438.7224              1470.7084
 Red. masses --      1.2133                 1.3360                 1.0702
 Frc consts  --      1.4245                 1.6294                 1.3638
 IR Inten    --     90.2609               263.9279                30.3913

                     19                     20                     21
                      A                      A                      A
 Frequencies --   1475.2974              1491.3768              1517.6338
 Red. masses --      1.1525                 1.1433                 1.0424
 Frc consts  --      1.4779                 1.4982                 1.4146
 IR Inten    --     14.4088                30.2575                26.6343

                     22                     23                     24
                      A                      A                      A
 Frequencies --   1525.2962              1612.2585              3072.9273
 Red. masses --      2.8845                 3.4091                 1.0395
 Frc consts  --      3.9539                 5.2211                 5.7831
 IR Inten    --    187.8215               527.5032                13.5410

                     25                     26                     27
                      A                      A                      A
 Frequencies --   3082.3901              3134.8011              3181.0604
 Red. masses --      1.0310                 1.0979                 1.1138
 Frc consts  --      5.7712                 6.3566                 6.6403
 IR Inten    --      3.0241                 4.7180                 0.9142

                     28                     29                     30
                      A                      A                      A
 Frequencies --   3203.2585              3229.6291              3657.4468
 Red. masses --      1.1038                 1.1054                 1.0665
 Frc consts  --      6.6730                 6.7931                 8.4052
 IR Inten    --      2.4753                 0.9444               218.6005

 - Thermochemistry -
 -------------------
 Temperature   298.150 Kelvin.  Pressure   1.00000 Atm.
 Atom     1 has atomic number  6 and mass  12.00000

 Molecular mass:    75.04460 amu.
 Principal axes and moments of inertia in atomic units:
                           1         2         3
     Eigenvalues --   184.73794 458.94525 620.49908
           X            0.99886   0.04780  -0.00023
           Y           -0.04780   0.99886  -0.00025
           Z            0.00022   0.00026   1.00000
 This molecule is an asymmetric top.
 Rotational symmetry number  1.
 Rotational temperatures (Kelvin)      0.46885     0.18872     0.13959
 Rotational constants (GHZ):           9.76920     3.93237     2.90853
 Zero-point vibrational energy     268510.6 (Joules/Mol)
                                   64.17557 (Kcal/Mol)
 Warning -- explicit consideration of   7 degrees of freedom as
           vibrations may cause significant error
 Vibrational temperatures:    149.98   226.63   270.38   365.20   598.12
          (Kelvin)            746.41   856.52   918.97  1210.81  1393.28
                             1525.79  1550.12  1671.82  1695.86  1764.77
                             2030.99  2070.00  2116.02  2122.62  2145.76
                             2183.53  2194.56  2319.68  4421.25  4434.87
                             4510.27  4576.83  4608.77  4646.71  5262.24

 Zero-point correction=                           0.102270 (Hartree/Particle)
 Thermal correction to Energy=                    0.108588
 Thermal correction to Enthalpy=                  0.109532
 Thermal correction to Gibbs Free Energy=         0.072826
 Sum of electronic and zero-point Energies=           -268.583865
 Sum of electronic and thermal Energies=              -268.577547
 Sum of electronic and thermal Enthalpies=            -268.576603
 Sum of electronic and thermal Free Energies=         -268.613309

                     E (Thermal)             CV                S
                      KCal/Mol        Cal/Mol-Kelvin    Cal/Mol-Kelvin
 Total                   68.140             20.930             77.254
 Electronic               0.000              0.000              0.000
 Translational            0.889              2.981             38.862
 Rotational               0.889              2.981             25.468
 Vibrational             66.362             14.968             12.924
 Vibration     1          0.605              1.946              3.373
 Vibration     2          0.621              1.894              2.579
 Vibration     3          0.633              1.856              2.248
 Vibration     4          0.665              1.756              1.704
 Vibration     5          0.779              1.436              0.907
 Vibration     6          0.874              1.208              0.613
 Vibration     7          0.953              1.042              0.458

 Normal termination of Gaussian 09 at Sat Sep 26 16:10:38 2015.
