 Gaussian 09, Revision D.01,
 Gaussian 09:  EM64L-G09RevD.01 24-Apr-2013

 -----------------------------------------------
 # freq=noraman m062x/def2tzvp geom=connectivity
 -----------------------------------------------

 --------------
 ts611oh hcl s9
 --------------
 Symbolic Z-matrix:
 Charge =  0 Multiplicity = 1

                         Standard orientation:
 ---------------------------------------------------------------------
 Center     Atomic      Atomic             Coordinates (Angstroms)
 Number     Number       Type             X           Y           Z
 ---------------------------------------------------------------------
      1          1           0       -1.142299   -0.788784   -0.586415
      2          6           0       -1.015378    1.789955   -0.610973
      3          1           0       -0.779887    2.763360   -0.184376
      4          1           0       -1.131865    1.870365   -1.692075
      5          1           0       -1.954407    1.396796   -0.224073
      6          6           0        0.091382    0.807311   -0.312199
      7          8           0       -0.082505   -0.431331   -0.782711
      8          8           0        2.573891   -0.408933    0.251119
      9          1           0        2.164441    0.290154   -0.531469
     10          6           0       -0.553160    0.457489    1.971168
     11          1           0       -1.064262   -0.452099    1.650676
     12          1           0       -0.071797    0.315757    2.935644
     13          1           0       -1.275702    1.269575    2.046854
     14          8           0        0.490834    0.807646    1.056971
     15          1           0        1.808160   -0.244471    0.904551
     16          8           0        1.356501    1.295840   -0.918672
     17          1           0        1.182637    1.454329   -1.854923
     18         17           0       -2.791661   -1.128734   -0.227660
     19          6           0        2.642615   -1.796507   -0.161735
     20          1           0        3.443274   -1.863009   -0.891931
     21          1           0        2.890912   -2.387831    0.714870
     22          1           0        1.686499   -2.090921   -0.588333
 ---------------------------------------------------------------------

 SCF Done:  E(RM062X) =  -921.304885140     A.U. after   14 cycles

 The electronic state is 1-A.
 Alpha  occ. eigenvalues -- -102.50587 -19.74115 -19.70734 -19.67476 -19.61921
 Alpha  occ. eigenvalues --  -10.72421 -10.63502 -10.59045 -10.54245  -9.66922
 Alpha  occ. eigenvalues --   -7.38877  -7.38758  -7.38754  -1.28037  -1.24271
 Alpha  occ. eigenvalues --   -1.18241  -1.13140  -0.86549  -0.85705  -0.82099
 Alpha  occ. eigenvalues --   -0.77915  -0.71768  -0.69761  -0.67350  -0.62675
 Alpha  occ. eigenvalues --   -0.62449  -0.59111  -0.58242  -0.55547  -0.54240
 Alpha  occ. eigenvalues --   -0.52016  -0.50510  -0.49470  -0.47991  -0.47013
 Alpha  occ. eigenvalues --   -0.44761  -0.44520  -0.43706  -0.38516  -0.37557
 Alpha  occ. eigenvalues --   -0.28914  -0.27576  -0.27468
 Alpha virt. eigenvalues --    0.02300   0.04823   0.07220   0.08186   0.10099
 Alpha virt. eigenvalues --    0.11546   0.11863   0.12810   0.13392   0.13534
 Alpha virt. eigenvalues --    0.15229   0.16542   0.16975   0.18038   0.18879

 Mulliken charges:
               1
     1  H    0.350849
     2  C   -0.458235
     3  H    0.163345
     4  H    0.153981
     5  H    0.192844
     6  C    0.274607
     7  O   -0.501468
     8  O   -0.362552
     9  H    0.415759
    10  C   -0.256968
    11  H    0.179758
    12  H    0.142477
    13  H    0.155452
    14  O   -0.376295
    15  H    0.408063
    16  O   -0.465008
    17  H    0.361816
    18  Cl  -0.644566
    19  C   -0.256865
    20  H    0.157450
    21  H    0.160535
    22  H    0.205021
 Sum of Mulliken charges =   0.00000

 Dipole moment (field-independent basis, Debye):
    X=              9.3376    Y=              2.4135    Z=              0.1093  Tot=              9.6451
 Quadrupole moment (field-independent basis, Debye-Ang):
   XX=            -76.6620   YY=            -62.6010   ZZ=            -56.6059
   XY=            -17.1228   XZ=             -5.9162   YZ=             -5.0692

  Exact polarizability:  97.938  -0.483  84.040  -1.789  -2.139  80.228
 Approx polarizability: 106.527   1.977  97.192  -2.082  -1.558  96.617

 ******    1 imaginary frequencies (negative Signs) ******

                      1                      2                      3
                      A                      A                      A
 Frequencies --   -231.5784                38.1567                77.2699
 Red. masses --      2.2186                 2.5029                 4.1116
 Frc consts  --      0.0701                 0.0021                 0.0145
 IR Inten    --    180.2358                 2.4211                 6.7033

                      4                      5                      6
                      A                      A                      A
 Frequencies --    102.7444               129.7111               151.0953
 Red. masses --      4.2220                 3.2350                 1.1960
 Frc consts  --      0.0263                 0.0321                 0.0161
 IR Inten    --     28.6676                24.7537                 4.8342

                      7                      8                      9
                      A                      A                      A
 Frequencies --    191.8805               208.7993               211.2957
 Red. masses --      2.8136                 2.8827                 1.3008
 Frc consts  --      0.0610                 0.0740                 0.0342
 IR Inten    --     56.0054                23.0220                 4.8246

                     10                     11                     12
                      A                      A                      A
 Frequencies --    225.3759               274.8993               291.3644
 Red. masses --      3.4098                 1.2496                 3.0704
 Frc consts  --      0.1020                 0.0556                 0.1536
 IR Inten    --    129.3824                11.1533                 7.1644

                     13                     14                     15
                      A                      A                      A
 Frequencies --    322.9021               389.9280               434.6595
 Red. masses --      2.3747                 3.2069                 3.2183
 Frc consts  --      0.1459                 0.2873                 0.3582
 IR Inten    --     48.4654                42.9726               290.5906

                     16                     17                     18
                      A                      A                      A
 Frequencies --    451.6941               511.7286               572.3576
 Red. masses --      2.1347                 3.4488                 5.2268
 Frc consts  --      0.2566                 0.5321                 1.0088
 IR Inten    --     51.3407                29.2829                68.7969

                     19                     20                     21
                      A                      A                      A
 Frequencies --    613.5721               755.3842               764.6137
 Red. masses --      4.7564                 2.1050                 2.5504
 Frc consts  --      1.0550                 0.7077                 0.8785
 IR Inten    --    214.3925               194.6669               114.4715

                     22                     23                     24
                      A                      A                      A
 Frequencies --    902.2820               981.9347              1041.7067
 Red. masses --      1.6287                 2.2332                 1.5818
 Frc consts  --      0.7812                 1.2687                 1.0113
 IR Inten    --     53.5699               183.7432               204.7213

                     25                     26                     27
                      A                      A                      A
 Frequencies --   1055.1902              1061.1423              1082.3026
 Red. masses --      2.6032                 1.6403                 1.3303
 Frc consts  --      1.7077                 1.0882                 0.9181
 IR Inten    --     99.7817               336.6168               171.3438

                     28                     29                     30
                      A                      A                      A
 Frequencies --   1115.5686              1129.9399              1165.8395
 Red. masses --      1.6092                 1.4813                 1.7990
 Frc consts  --      1.1799                 1.1143                 1.4406
 IR Inten    --    135.6493               239.6427              1061.2460

                     31                     32                     33
                      A                      A                      A
 Frequencies --   1185.6128              1189.0167              1226.8772
 Red. masses --      1.4105                 1.3100                 1.4329
 Frc consts  --      1.1682                 1.0912                 1.2707
 IR Inten    --    202.8246                19.5142               254.5173

                     34                     35                     36
                      A                      A                      A
 Frequencies --   1260.0915              1317.9593              1366.4836
 Red. masses --      1.5478                 1.5992                 1.2567
 Frc consts  --      1.4480                 1.6366                 1.3826
 IR Inten    --    161.7393               248.6821               399.9014

                     37                     38                     39
                      A                      A                      A
 Frequencies --   1422.3865              1443.6712              1457.1567
 Red. masses --      1.2391                 1.1510                 1.3466
 Frc consts  --      1.4770                 1.4134                 1.6846
 IR Inten    --     56.9199               311.9372               176.6725

                     40                     41                     42
                      A                      A                      A
 Frequencies --   1472.1455              1481.9439              1494.3944
 Red. masses --      1.2374                 1.0714                 1.1302
 Frc consts  --      1.5800                 1.3863                 1.4871
 IR Inten    --    249.5649                11.1909                84.4709

                     43                     44                     45
                      A                      A                      A
 Frequencies --   1505.4057              1512.6343              1516.6620
 Red. masses --      1.0453                 1.0529                 1.0584
 Frc consts  --      1.3957                 1.4194                 1.4345
 IR Inten    --      3.4343                72.8700                43.6313

                     46                     47                     48
                      A                      A                      A
 Frequencies --   1520.6708              1537.4799              1592.1481
 Red. masses --      1.0578                 1.2521                 1.1851
 Frc consts  --      1.4412                 1.7438                 1.7699
 IR Inten    --     43.0471               792.9254              1071.5013

                     49                     50                     51
                      A                      A                      A
 Frequencies --   1948.9642              2994.4630              3068.3445
 Red. masses --      1.0693                 1.0636                 1.0315
 Frc consts  --      2.3931                 5.6190                 5.7215
 IR Inten    --    224.1670              1129.2476                21.5620

                     52                     53                     54
                      A                      A                      A
 Frequencies --   3070.8326              3103.1549              3150.7346
 Red. masses --      1.0358                 1.0293                 1.1070
 Frc consts  --      5.7547                 5.8399                 6.4749
 IR Inten    --     12.6243                 2.5654                11.9151

                     55                     56                     57
                      A                      A                      A
 Frequencies --   3152.1761              3177.0097              3180.4707
 Red. masses --      1.1036                 1.1059                 1.1037
 Frc consts  --      6.4605                 6.5767                 6.5780
 IR Inten    --      7.9591                 6.3364                 6.4146

                     58                     59                     60
                      A                      A                      A
 Frequencies --   3200.4416              3207.8832              3852.5895
 Red. masses --      1.1092                 1.1096                 1.0663
 Frc consts  --      6.6940                 6.7275                 9.3245
 IR Inten    --      2.2455                 1.5149               105.7738

 - Thermochemistry -
 -------------------
 Temperature   298.150 Kelvin.  Pressure   1.00000 Atm.
 Atom     1 has atomic number  1 and mass   1.00783

 Molecular mass:   160.05024 amu.
 Principal axes and moments of inertia in atomic units:
                           1         2         3
     Eigenvalues --  1166.107822418.981102716.45860
           X            0.99736  -0.07170  -0.01120
           Y            0.07134   0.99700  -0.03000
           Z            0.01332   0.02912   0.99949
 This molecule is an asymmetric top.
 Rotational symmetry number  1.
 Warning -- assumption of classical behavior for rotation
           may cause significant error
 Rotational temperatures (Kelvin)      0.07428     0.03581     0.03188
 Rotational constants (GHZ):           1.54766     0.74607     0.66437
    1 imaginary frequencies ignored.
 Zero-point vibrational energy     471718.3 (Joules/Mol)
                                  112.74338 (Kcal/Mol)
 Warning -- explicit consideration of  18 degrees of freedom as
           vibrations may cause significant error
 Vibrational temperatures:     54.90   111.17   147.83   186.63   217.39
          (Kelvin)            276.07   300.42   304.01   324.27   395.52
                              419.21   464.58   561.02   625.38   649.89
                              736.26   823.49   882.79  1086.83  1100.11
                             1298.18  1412.78  1498.78  1518.18  1526.75
                             1557.19  1605.05  1625.73  1677.38  1705.83
                             1710.73  1765.20  1812.99  1896.25  1966.06
                             2046.49  2077.12  2096.52  2118.09  2132.18
                             2150.10  2165.94  2176.34  2182.14  2187.90
                             2212.09  2290.74  2804.12  4308.36  4414.66
                             4418.24  4464.74  4533.20  4535.27  4571.00
                             4575.98  4604.72  4615.42  5543.01

 Zero-point correction=                           0.179668 (Hartree/Particle)
 Thermal correction to Energy=                    0.191654
 Thermal correction to Enthalpy=                  0.192599
 Thermal correction to Gibbs Free Energy=         0.141229
 Sum of electronic and zero-point Energies=           -921.125217
 Sum of electronic and thermal Energies=              -921.113231
 Sum of electronic and thermal Enthalpies=            -921.112286
 Sum of electronic and thermal Free Energies=         -921.163656

                     E (Thermal)             CV                S
                      KCal/Mol        Cal/Mol-Kelvin    Cal/Mol-Kelvin
 Total                  120.265             41.910            108.117
 Electronic               0.000              0.000              0.000
 Translational            0.889              2.981             41.120
 Rotational               0.889              2.981             30.417
 Vibrational            118.488             35.948             36.580
 Vibration     1          0.594              1.982              5.353
 Vibration     2          0.599              1.964              3.959
 Vibration     3          0.605              1.947              3.402
 Vibration     4          0.612              1.924              2.950
 Vibration     5          0.619              1.901              2.658
 Vibration     6          0.634              1.851              2.210
 Vibration     7          0.642              1.827              2.054
 Vibration     8          0.643              1.824              2.032
 Vibration     9          0.650              1.802              1.915
 Vibration    10          0.677              1.720              1.565
 Vibration    11          0.687              1.690              1.466
 Vibration    12          0.708              1.630              1.295
 Vibration    13          0.758              1.492              1.000
 Vibration    14          0.795              1.395              0.844
 Vibration    15          0.810              1.357              0.791
 Vibration    16          0.867              1.224              0.629
 Vibration    17          0.929              1.091              0.500
 Vibration    18          0.973              1.003              0.427

 Normal termination of Gaussian 09 at Tue Sep 22 16:29:59 2015.
