 Gaussian 09, Revision D.01,
 Gaussian 09:  ES64L-G09RevD.01 24-Apr-2013

 ----------------------------------------------------------------------
 # opt=(calcfc,ts,noeigentest,maxcycle=50) x3lyp/6-31+g(d) geom=connect
 ivity
 ----------------------------------------------------------------------

 --------
 tsb-3opt
 --------
 Symbolic Z-matrix:
 Charge =  1 Multiplicity = 1

 SCF Done:  E(RX3LYP) =  -460.670405650     A.U. after   12 cycles

  Exact polarizability:   0.000   0.000   0.000   0.000   0.000   0.000
 Approx polarizability:  91.116  -0.903  83.055   3.913  -0.697  84.090

 SCF Done:  E(RX3LYP) =  -460.686217027     A.U. after   11 cycles
 SCF Done:  E(RX3LYP) =  -460.691012718     A.U. after   11 cycles
 SCF Done:  E(RX3LYP) =  -460.693382360     A.U. after   13 cycles
 SCF Done:  E(RX3LYP) =  -460.694202081     A.U. after   11 cycles
 SCF Done:  E(RX3LYP) =  -460.693599247     A.U. after   11 cycles
 SCF Done:  E(RX3LYP) =  -460.694664031     A.U. after   11 cycles
 SCF Done:  E(RX3LYP) =  -460.694838789     A.U. after   10 cycles
 SCF Done:  E(RX3LYP) =  -460.694869813     A.U. after   10 cycles
 SCF Done:  E(RX3LYP) =  -460.694640693     A.U. after   11 cycles
 SCF Done:  E(RX3LYP) =  -460.694925691     A.U. after    8 cycles
 SCF Done:  E(RX3LYP) =  -460.694925720     A.U. after    7 cycles
 SCF Done:  E(RX3LYP) =  -460.694925797     A.U. after    7 cycles
 SCF Done:  E(RX3LYP) =  -460.694925968     A.U. after    8 cycles
 SCF Done:  E(RX3LYP) =  -460.694926431     A.U. after    8 cycles
 SCF Done:  E(RX3LYP) =  -460.694926975     A.U. after    8 cycles
 SCF Done:  E(RX3LYP) =  -460.694927045     A.U. after    7 cycles
 SCF Done:  E(RX3LYP) =  -460.694927021     A.U. after    8 cycles
 SCF Done:  E(RX3LYP) =  -460.694926998     A.U. after    7 cycles
 SCF Done:  E(RX3LYP) =  -460.694926970     A.U. after    8 cycles
 Optimization completed.
    -- Stationary point found.

                         Standard orientation:
 ---------------------------------------------------------------------
 Center     Atomic      Atomic             Coordinates (Angstroms)
 Number     Number       Type             X           Y           Z
 ---------------------------------------------------------------------
      1          6           0        1.808530    1.822994    0.001852
      2          1           0        2.166865    1.810442   -1.031849
      3          1           0        2.610033    1.564780    0.696152
      4          1           0        1.410549    2.808635    0.239689
      5          6           0        1.181525   -0.912355   -1.400945
      6          1           0        0.352306   -0.600055   -2.040707
      7          1           0        1.257919   -2.003146   -1.434584
      8          1           0        2.106071   -0.478672   -1.791893
      9          6           0        0.955550   -0.433500    0.020122
     10          8           0        1.898447   -0.826220    0.937750
     11          1           0        2.375650   -1.621159    0.645469
     12          8           0       -2.168228    0.362704   -0.260648
     13          1           0       -1.915691    1.293985   -0.126188
     14          8           0        0.691533    0.915369    0.165326
     15          1           0       -1.279328   -0.367578    0.154168
     16          8           0       -0.347790   -1.051640    0.473731
     17          1           0       -0.289270   -1.124702    1.448330
     18          6           0       -3.565951    0.096969    0.087647
     19          1           0       -3.733900   -0.954747   -0.139790
     20          1           0       -3.736433    0.303386    1.146035
     21          1           0       -4.194378    0.722484   -0.546166
 ---------------------------------------------------------------------

 The electronic state is 1-A.
 Alpha  occ. eigenvalues --  -19.42733 -19.42670 -19.38078 -19.36734 -10.55589
 Alpha  occ. eigenvalues --  -10.43256 -10.39784 -10.36828  -1.30885  -1.26256
 Alpha  occ. eigenvalues --   -1.22201  -1.19902  -0.93132  -0.88975  -0.86904
 Alpha  occ. eigenvalues --   -0.80230  -0.77287  -0.75100  -0.70672  -0.68430
 Alpha  occ. eigenvalues --   -0.66435  -0.64049  -0.63317  -0.59947  -0.59742
 Alpha  occ. eigenvalues --   -0.57342  -0.56605  -0.56307  -0.54144  -0.53299
 Alpha  occ. eigenvalues --   -0.51305  -0.50347  -0.49434  -0.44877
 Alpha virt. eigenvalues --   -0.16136  -0.12991  -0.11855  -0.10065  -0.09218
 Alpha virt. eigenvalues --   -0.08979  -0.07411  -0.07187  -0.06098  -0.05845
 Alpha virt. eigenvalues --   -0.05013  -0.04609  -0.03651  -0.02686  -0.01917

 Mulliken charges:
               1
     1  C   -0.367269
     2  H    0.215951
     3  H    0.247889
     4  H    0.232443
     5  C   -0.522632
     6  H    0.251953
     7  H    0.244314
     8  H    0.254942
     9  C    0.327528
    10  O   -0.618811
    11  H    0.505355
    12  O   -0.752309
    13  H    0.547693
    14  O   -0.359092
    15  H    0.653823
    16  O   -0.814568
    17  H    0.568782
    18  C   -0.353943
    19  H    0.248004
    20  H    0.239184
    21  H    0.250762
 Sum of Mulliken charges =   1.00000

 Dipole moment (field-independent basis, Debye):
    X=             -2.7399    Y=             -0.2628    Z=              0.1093  Tot=              2.7546
 Quadrupole moment (field-independent basis, Debye-Ang):
   XX=            -16.6307   YY=            -37.1552   ZZ=            -45.4736
   XY=             -4.4340   XZ=             -4.6027   YZ=             -1.4521

 Normal termination of Gaussian 09 at Tue Sep 29 19:34:53 2015.
