 Gaussian 09, Revision D.01,
 Gaussian 09:  ES64L-G09RevD.01 24-Apr-2013

 ----------------------------------------------------------------------
 # freq=noraman x3lyp/6-31+g(d) scrf=(solvent=methanol,smd) geom=connec
 tivity
 ----------------------------------------------------------------------

 ---------
 tsb-3freq
 ---------
 Symbolic Z-matrix:
 Charge =  1 Multiplicity = 1

                         Standard orientation:
 ---------------------------------------------------------------------
 Center     Atomic      Atomic             Coordinates (Angstroms)
 Number     Number       Type             X           Y           Z
 ---------------------------------------------------------------------
      1          6           0       -2.484263    0.425449    0.255542
      2          1           0       -2.842614    0.957020   -0.647340
      3          1           0       -2.375716    1.139975    1.072355
      4          1           0       -3.236127   -0.313733    0.543567
      5          6           0       -1.210070   -0.302868   -0.032165
      6          8           0       -0.162845    0.671681   -0.560174
      7          8           0       -0.342267   -0.993631    1.259805
      8          1           0       -0.896427   -1.733899    1.642988
      9          8           0       -1.386385   -1.223825   -1.029647
     10          1           0       -0.639996   -1.847564   -1.032804
     11          6           0       -0.013587    1.980573    0.092491
     12          1           0        0.886460    2.417760   -0.338680
     13          1           0       -0.885848    2.579929   -0.159267
     14          1           0        0.092246    1.839460    1.170828
     15          1           0        0.782462    0.161912   -0.519189
     16          6           0        3.166055    0.038669    0.055798
     17          1           0        3.457935    0.609986   -0.827097
     18          1           0        3.940291   -0.696910    0.293668
     19          1           0        3.013375    0.710148    0.906700
     20          8           0        1.937799   -0.648822   -0.277434
     21          1           0        1.584740   -1.118248    0.523878
 ---------------------------------------------------------------------

 SCF Done:  E(RX3LYP) =  -460.760088069     A.U. after   12 cycles

 The electronic state is 1-A.
 Alpha  occ. eigenvalues --  -19.30010 -19.24997 -19.23317 -19.22735 -10.43166
 Alpha  occ. eigenvalues --  -10.28203 -10.26064 -10.23045  -1.15487  -1.09247
 Alpha  occ. eigenvalues --   -1.06072  -0.99854  -0.79972  -0.74824  -0.70628
 Alpha  occ. eigenvalues --   -0.64879  -0.60784  -0.58250  -0.53674  -0.53406
 Alpha  occ. eigenvalues --   -0.49069  -0.47188  -0.46382  -0.45676  -0.45597
 Alpha  occ. eigenvalues --   -0.43368  -0.42042  -0.41597  -0.38829  -0.37817
 Alpha  occ. eigenvalues --   -0.37097  -0.35693  -0.33124  -0.32099
 Alpha virt. eigenvalues --   -0.01930   0.00586   0.01511   0.02374   0.03289
 Alpha virt. eigenvalues --    0.03741   0.04531   0.04944   0.06245   0.06912
 Alpha virt. eigenvalues --    0.07414   0.08049   0.08410   0.09330   0.10703

 Mulliken charges:
               1
     1  C   -0.644245
     2  H    0.287859
     3  H    0.276932
     4  H    0.276680
     5  C    0.452600
     6  O   -0.476563
     7  O   -0.779446
     8  H    0.544483
     9  O   -0.640479
    10  H    0.571833
    11  C   -0.407089
    12  H    0.267035
    13  H    0.270431
    14  H    0.276413
    15  H    0.652605
    16  C   -0.376942
    17  H    0.232799
    18  H    0.225323
    19  H    0.225776
    20  O   -0.822912
    21  H    0.586907
 Sum of Mulliken charges =   1.00000

 Dipole moment (field-independent basis, Debye):
    X=              0.5955    Y=              1.4343    Z=              2.0317  Tot=              2.5573
 Quadrupole moment (field-independent basis, Debye-Ang):
   XX=            -30.4423   YY=            -33.6697   ZZ=            -49.7497
   XY=              0.4762   XZ=             -2.2378   YZ=             -2.8725

  Exact polarizability:  97.180  -0.831  93.321   4.290  -3.238  88.019
 Approx polarizability:  92.032  -0.826  90.009   5.320  -3.814  89.200

 ******    1 imaginary frequencies (negative Signs) ******

                      1                      2                      3
                      A                      A                      A
 Frequencies --   -191.1224               108.5454               112.6199
 Red. masses --      2.8617                 2.8971                 3.7375
 Frc consts  --      0.0616                 0.0201                 0.0279
 IR Inten    --    319.7354                23.6934                 4.4286

                      4                      5                      6
                      A                      A                      A
 Frequencies --    136.4857               171.5060               183.0583
 Red. masses --      2.0044                 1.4690                 1.7296
 Frc consts  --      0.0220                 0.0255                 0.0341
 IR Inten    --      7.8828                40.4097                42.3958

                      7                      8                      9
                      A                      A                      A
 Frequencies --    198.3469               211.9927               242.3071
 Red. masses --      3.3067                 2.1143                 1.3169
 Frc consts  --      0.0766                 0.0560                 0.0456
 IR Inten    --     19.8259                 3.6654                20.6987

                     10                     11                     12
                      A                      A                      A
 Frequencies --    264.5304               274.2500               332.8857
 Red. masses --      3.5595                 2.0264                 1.3234
 Frc consts  --      0.1468                 0.0898                 0.0864
 IR Inten    --    154.5554               137.5514                51.9395

                     13                     14                     15
                      A                      A                      A
 Frequencies --    346.8166               378.2645               474.3311
 Red. masses --      3.0851                 3.4050                 4.0822
 Frc consts  --      0.2186                 0.2871                 0.5411
 IR Inten    --     13.6825                58.6839                41.6247

                     16                     17                     18
                      A                      A                      A
 Frequencies --    500.1879               533.0271               552.7237
 Red. masses --      3.7004                 3.3194                 1.1158
 Frc consts  --      0.5455                 0.5557                 0.2008
 IR Inten    --      8.4053                73.5389               157.8266

                     19                     20                     21
                      A                      A                      A
 Frequencies --    659.6200               745.1728               901.0581
 Red. masses --      4.0697                 1.1232                 4.1585
 Frc consts  --      1.0433                 0.3675                 1.9893
 IR Inten    --    327.5317               343.6776               339.2469

                     22                     23                     24
                      A                      A                      A
 Frequencies --    980.8521               993.5611              1038.0595
 Red. masses --      4.6291                 5.8998                 1.5530
 Frc consts  --      2.6239                 3.4314                 0.9860
 IR Inten    --     67.8126               307.2680                90.7816

                     25                     26                     27
                      A                      A                      A
 Frequencies --   1078.2692              1106.1161              1156.0653
 Red. masses --      1.4220                 1.0988                 1.1926
 Frc consts  --      0.9741                 0.7921                 0.9391
 IR Inten    --    107.3737               118.8185                21.1294

                     28                     29                     30
                      A                      A                      A
 Frequencies --   1171.8621              1195.8626              1200.2163
 Red. masses --      1.6965                 1.2733                 1.3947
 Frc consts  --      1.3726                 1.0729                 1.1837
 IR Inten    --    276.1611                13.9362               131.9733

                     31                     32                     33
                      A                      A                      A
 Frequencies --   1236.3300              1304.6499              1369.0174
 Red. masses --      1.2727                 1.2600                 1.6561
 Frc consts  --      1.1462                 1.2636                 1.8287
 IR Inten    --    243.0994               134.5866                86.8805

                     34                     35                     36
                      A                      A                      A
 Frequencies --   1410.8327              1447.8672              1455.8649
 Red. masses --      1.2194                 1.3737                 1.1545
 Frc consts  --      1.4301                 1.6967                 1.4417
 IR Inten    --     66.1047                18.0167               150.0748

                     37                     38                     39
                      A                      A                      A
 Frequencies --   1476.2861              1486.4738              1488.8213
 Red. masses --      1.0500                 1.0969                 1.0564
 Frc consts  --      1.3482                 1.4280                 1.3797
 IR Inten    --     23.9597                 3.1443                28.8371

                     40                     41                     42
                      A                      A                      A
 Frequencies --   1493.9786              1495.1999              1507.5920
 Red. masses --      1.0516                 1.0566                 1.0438
 Frc consts  --      1.3829                 1.3918                 1.3978
 IR Inten    --     27.1009                10.1322                 1.8605

                     43                     44                     45
                      A                      A                      A
 Frequencies --   1517.6374              1692.7778              1923.0476
 Red. masses --      1.0460                 1.0937                 1.1504
 Frc consts  --      1.4194                 1.8464                 2.5066
 IR Inten    --     13.5949               100.4718              3606.9315

                     46                     47                     48
                      A                      A                      A
 Frequencies --   3009.4058              3070.7800              3106.1086
 Red. masses --      1.0607                 1.0303                 1.0306
 Frc consts  --      5.6597                 5.7242                 5.8584
 IR Inten    --      0.5353                39.3124                10.9522

                     49                     50                     51
                      A                      A                      A
 Frequencies --   3141.4222              3145.8692              3180.9201
 Red. masses --      1.0802                 1.1086                 1.1075
 Frc consts  --      6.2805                 6.4642                 6.6022
 IR Inten    --      0.2864                32.7589                21.7828

                     52                     53                     54
                      A                      A                      A
 Frequencies --   3190.6767              3207.3820              3235.4941
 Red. masses --      1.1009                 1.1089                 1.1104
 Frc consts  --      6.6033                 6.7210                 6.8487
 IR Inten    --      1.0079                 1.9003                 0.9184

                     55                     56                     57
                      A                      A                      A
 Frequencies --   3410.4820              3438.3997              3736.9213
 Red. masses --      1.0676                 1.0671                 1.0660
 Frc consts  --      7.3160                 7.4329                 8.7704
 IR Inten    --    165.6384               300.3051               195.8745

 - Thermochemistry -
 -------------------
 Temperature   298.150 Kelvin.  Pressure   1.00000 Atm.
 Atom     1 has atomic number  6 and mass  12.00000

 Molecular mass:   125.08138 amu.
 Principal axes and moments of inertia in atomic units:
                           1         2         3
     Eigenvalues --   679.080041539.098861798.11737
           X            0.99996  -0.00695  -0.00573
           Y            0.00693   0.99997  -0.00291
           Z            0.00575   0.00287   0.99998
 This molecule is an asymmetric top.
 Rotational symmetry number  1.
 Warning -- assumption of classical behavior for rotation
           may cause significant error
 Rotational temperatures (Kelvin)      0.12755     0.05628     0.04817
 Rotational constants (GHZ):           2.65763     1.17260     1.00368
    1 imaginary frequencies ignored.
 Zero-point vibrational energy     469108.6 (Joules/Mol)
                                  112.11964 (Kcal/Mol)
 Warning -- explicit consideration of  17 degrees of freedom as
           vibrations may cause significant error
 Vibrational temperatures:    156.17   162.03   196.37   246.76   263.38
          (Kelvin)            285.38   305.01   348.63   380.60   394.58
                              478.95   498.99   544.24   682.46   719.66
                              766.91   795.25   949.04  1072.14  1296.42
                             1411.23  1429.51  1493.53  1551.39  1591.45
                             1663.32  1686.05  1720.58  1726.84  1778.80
                             1877.10  1969.71  2029.87  2083.16  2094.66
                             2124.04  2138.70  2142.08  2149.50  2151.26
                             2169.09  2183.54  2435.53  2766.83  4329.86
                             4418.16  4468.99  4519.80  4526.20  4576.63
                             4590.67  4614.70  4655.15  4906.92  4947.08
                             5376.59

 Zero-point correction=                           0.178674 (Hartree/Particle)
 Thermal correction to Energy=                    0.189857
 Thermal correction to Enthalpy=                  0.190801
 Thermal correction to Gibbs Free Energy=         0.143199
 Sum of electronic and zero-point Energies=           -460.581414
 Sum of electronic and thermal Energies=              -460.570231
 Sum of electronic and thermal Enthalpies=            -460.569287
 Sum of electronic and thermal Free Energies=         -460.616889

                     E (Thermal)             CV                S
                      KCal/Mol        Cal/Mol-Kelvin    Cal/Mol-Kelvin
 Total                  119.137             40.006            100.188
 Electronic               0.000              0.000              0.000
 Translational            0.889              2.981             40.385
 Rotational               0.889              2.981             29.020
 Vibrational            117.360             34.045             30.783
 Vibration     1          0.606              1.942              3.295
 Vibration     2          0.607              1.939              3.223
 Vibration     3          0.614              1.917              2.853
 Vibration     4          0.626              1.878              2.419
 Vibration     5          0.631              1.863              2.297
 Vibration     6          0.637              1.842              2.148
 Vibration     7          0.643              1.823              2.026
 Vibration     8          0.659              1.775              1.786
 Vibration     9          0.671              1.738              1.632
 Vibration    10          0.677              1.721              1.569
 Vibration    11          0.715              1.610              1.246
 Vibration    12          0.725              1.582              1.181
 Vibration    13          0.749              1.516              1.046
 Vibration    14          0.831              1.307              0.726
 Vibration    15          0.856              1.250              0.658
 Vibration    16          0.888              1.177              0.580
 Vibration    17          0.908              1.134              0.539

 Normal termination of Gaussian 09 at Wed Sep 23 12:46:29 2015.
