 Gaussian 09, Revision D.01,
 Gaussian 09:  ES64L-G09RevD.01 24-Apr-2013

 ----------------------------------------------------------------------
 # opt=(calcfc,ts,noeigentest) freq=noraman x3lyp/6-31+g(d) geom=connec
 tivity
 ----------------------------------------------------------------------

 -------------------
 Title Card Required
 -------------------
 Symbolic Z-matrix:
 Charge =  1 Multiplicity = 1

 SCF Done:  E(RX3LYP) =  -460.435429083     A.U. after   17 cycles
 SCF Done:  E(RX3LYP) =  -460.478434331     A.U. after   13 cycles
 SCF Done:  E(RX3LYP) =  -460.519783933     A.U. after   13 cycles
 SCF Done:  E(RX3LYP) =  -460.558143077     A.U. after   12 cycles
 SCF Done:  E(RX3LYP) =  -460.587807357     A.U. after   12 cycles
 SCF Done:  E(RX3LYP) =  -460.612796017     A.U. after   12 cycles
 SCF Done:  E(RX3LYP) =  -460.635962601     A.U. after   11 cycles
 SCF Done:  E(RX3LYP) =  -460.653323207     A.U. after   11 cycles
 SCF Done:  E(RX3LYP) =  -460.669156165     A.U. after   11 cycles
 SCF Done:  E(RX3LYP) =  -460.678718705     A.U. after   11 cycles
 SCF Done:  E(RX3LYP) =  -460.692181089     A.U. after    9 cycles
 SCF Done:  E(RX3LYP) =  -460.692181759     A.U. after    8 cycles
 SCF Done:  E(RX3LYP) =  -460.691847603     A.U. after   11 cycles
 SCF Done:  E(RX3LYP) =  -460.692076099     A.U. after   11 cycles
 SCF Done:  E(RX3LYP) =  -460.692210836     A.U. after   10 cycles
 SCF Done:  E(RX3LYP) =  -460.692181053     A.U. after   10 cycles
 SCF Done:  E(RX3LYP) =  -460.692178026     A.U. after   10 cycles
 SCF Done:  E(RX3LYP) =  -460.692181677     A.U. after    9 cycles
 SCF Done:  E(RX3LYP) =  -460.692181727     A.U. after    7 cycles
 Optimization completed.
    -- Stationary point found.
 Normal termination of Gaussian 09 at Wed Sep 30 09:06:08 2015.

 ---------------------------------------------------------------------
 #N Geom=AllCheck Guess=TCheck SCRF=Check GenChk RX3LYP/6-31+G(d) Freq
 ---------------------------------------------------------------------

 Structure from the checkpoint file:  "/data/sawal/gaussian/Gau-27575.chk"
 -------------------
 Title Card Required
 -------------------
 Charge =  1 Multiplicity = 1

                         Standard orientation:
 ---------------------------------------------------------------------
 Center     Atomic      Atomic             Coordinates (Angstroms)
 Number     Number       Type             X           Y           Z
 ---------------------------------------------------------------------
      1          6           0        0.634704    2.083342   -0.161584
      2          1           0        1.691516    2.345086   -0.206066
      3          1           0        0.265387    2.195151    0.863086
      4          1           0        0.064262    2.717105   -0.840747
      5          6           0        1.398527   -1.423025   -0.962861
      6          1           0        0.499728   -1.746559   -1.494313
      7          1           0        1.814164   -2.288883   -0.439284
      8          1           0        2.115505   -1.045482   -1.696614
      9          6           0        1.064896   -0.323158    0.023336
     10          8           0        2.117274    0.148697    0.773152
     11          1           0        2.862062   -0.474597    0.767241
     12          8           0       -1.977270   -0.408889   -0.313755
     13          1           0       -1.471395    0.275007   -0.822104
     14          8           0        0.430062    0.732181   -0.651197
     15          1           0       -1.250104   -0.687824    0.414018
     16          8           0        0.072438   -0.880475    0.981705
     17          1           0        0.278357   -0.543333    1.873237
     18          6           0       -3.300536    0.028618    0.174239
     19          1           0       -3.713799   -0.825425    0.707202
     20          1           0       -3.185534    0.896597    0.824552
     21          1           0       -3.895720    0.256386   -0.708223
 ---------------------------------------------------------------------

 SCF Done:  E(RX3LYP) =  -460.692181727     A.U. after    1 cycles

 The electronic state is 1-A.
 Alpha  occ. eigenvalues --  -19.46356 -19.39421 -19.37769 -19.37484 -10.54759
 Alpha  occ. eigenvalues --  -10.45336 -10.40488 -10.36101  -1.30907  -1.28745
 Alpha  occ. eigenvalues --   -1.20021  -1.19809  -0.93261  -0.91818  -0.85435
 Alpha  occ. eigenvalues --   -0.79868  -0.78795  -0.74914  -0.72183  -0.68857
 Alpha  occ. eigenvalues --   -0.65878  -0.65735  -0.63208  -0.60293  -0.59684
 Alpha  occ. eigenvalues --   -0.58669  -0.56603  -0.55532  -0.54767  -0.53449
 Alpha  occ. eigenvalues --   -0.51701  -0.50456  -0.48584  -0.45682
 Alpha virt. eigenvalues --   -0.16381  -0.12801  -0.12159  -0.11047  -0.09988
 Alpha virt. eigenvalues --   -0.08337  -0.07554  -0.07096  -0.06499  -0.05341
 Alpha virt. eigenvalues --   -0.05009  -0.04068  -0.03290  -0.02558  -0.01924

 Mulliken charges:
               1
     1  C   -0.348051
     2  H    0.256410
     3  H    0.214825
     4  H    0.230511
     5  C   -0.572617
     6  H    0.240549
     7  H    0.243344
     8  H    0.261982
     9  C    0.417689
    10  O   -0.677274
    11  H    0.522361
    12  O   -0.755424
    13  H    0.590302
    14  O   -0.438596
    15  H    0.628055
    16  O   -0.770392
    17  H    0.535706
    18  C   -0.353531
    19  H    0.264375
    20  H    0.245559
    21  H    0.264219
 Sum of Mulliken charges =   1.00000

 Dipole moment (field-independent basis, Debye):
    X=             -3.2316    Y=              0.1876    Z=              1.0553  Tot=              3.4047
 Quadrupole moment (field-independent basis, Debye-Ang):
   XX=            -17.1554   YY=            -42.0517   ZZ=            -43.7476
   XY=             -5.0014   XZ=             -0.5578   YZ=             -0.9134

  Exact polarizability:  74.217  -1.646  65.763   0.557  -0.035  59.360
 Approx polarizability:  88.528  -0.297  82.013   2.485  -1.370  81.173

 ******    1 imaginary frequencies (negative Signs) ******

                      1                      2                      3
                      A                      A                      A
 Frequencies --    -77.1704                52.5221                63.7966
 Red. masses --      2.4183                 3.2631                 2.6030
 Frc consts  --      0.0085                 0.0053                 0.0062
 IR Inten    --      1.0880                 2.9646                 1.2050

                      4                      5                      6
                      A                      A                      A
 Frequencies --    123.3323               133.4580               174.5740
 Red. masses --      2.1626                 1.2407                 1.1268
 Frc consts  --      0.0194                 0.0130                 0.0202
 IR Inten    --      2.0646                 2.9559                 1.6662

                      7                      8                      9
                      A                      A                      A
 Frequencies --    200.6255               213.5171               249.3105
 Red. masses --      2.0112                 2.2603                 1.1964
 Frc consts  --      0.0477                 0.0607                 0.0438
 IR Inten    --     25.6647                27.6993                12.9630

                     10                     11                     12
                      A                      A                      A
 Frequencies --    273.2877               316.0652               369.0585
 Red. masses --      2.6731                 2.8664                 2.8724
 Frc consts  --      0.1176                 0.1687                 0.2305
 IR Inten    --     58.2252                50.0830                 0.3447

                     13                     14                     15
                      A                      A                      A
 Frequencies --    394.7957               464.7226               483.6833
 Red. masses --      3.1573                 1.2586                 1.7273
 Frc consts  --      0.2899                 0.1602                 0.2381
 IR Inten    --     23.8367               148.7165                60.6318

                     16                     17                     18
                      A                      A                      A
 Frequencies --    543.4611               577.9773               600.3864
 Red. masses --      2.9243                 1.9999                 3.6300
 Frc consts  --      0.5089                 0.3936                 0.7709
 IR Inten    --     11.7813                42.8144                28.7690

                     19                     20                     21
                      A                      A                      A
 Frequencies --    754.3308               826.4259               952.4670
 Red. masses --      5.0224                 3.0847                 6.0961
 Frc consts  --      1.6838                 1.2413                 3.2584
 IR Inten    --     94.4865                81.2342                40.6744

                     22                     23                     24
                      A                      A                      A
 Frequencies --    959.9138              1022.3975              1045.0486
 Red. masses --      2.4119                 1.0833                 3.5846
 Frc consts  --      1.3094                 0.6671                 2.3066
 IR Inten    --    153.0879                34.5371               143.5958

                     25                     26                     27
                      A                      A                      A
 Frequencies --   1083.6526              1101.0420              1124.6374
 Red. masses --      1.7910                 1.4293                 1.6513
 Frc consts  --      1.2391                 1.0209                 1.2305
 IR Inten    --     67.5403               154.6190                79.8127

                     28                     29                     30
                      A                      A                      A
 Frequencies --   1171.2529              1177.7961              1213.9622
 Red. masses --      1.2433                 1.2672                 1.3871
 Frc consts  --      1.0049                 1.0357                 1.2044
 IR Inten    --     21.9300                 4.3214                20.5690

                     31                     32                     33
                      A                      A                      A
 Frequencies --   1237.0689              1313.2220              1367.3350
 Red. masses --      1.2940                 1.5205                 1.5168
 Frc consts  --      1.1667                 1.5450                 1.6708
 IR Inten    --     78.9516                21.6760               189.2689

                     34                     35                     36
                      A                      A                      A
 Frequencies --   1397.9201              1458.3824              1477.9060
 Red. masses --      1.7354                 1.4868                 1.1170
 Frc consts  --      1.9981                 1.8631                 1.4375
 IR Inten    --     91.8117                52.4732                35.2249

                     37                     38                     39
                      A                      A                      A
 Frequencies --   1493.5382              1507.5244              1510.2677
 Red. masses --      1.1278                 1.0605                 1.0476
 Frc consts  --      1.4823                 1.4199                 1.4078
 IR Inten    --      9.1873                 2.2855                 5.4046

                     40                     41                     42
                      A                      A                      A
 Frequencies --   1512.3970              1512.9754              1513.7921
 Red. masses --      1.0527                 1.0406                 1.0613
 Frc consts  --      1.4187                 1.4035                 1.4329
 IR Inten    --     29.0875                 7.0049                12.1813

                     43                     44                     45
                      A                      A                      A
 Frequencies --   1527.7575              1741.9935              2278.8238
 Red. masses --      1.0501                 1.1049                 1.0938
 Frc consts  --      1.4441                 1.9755                 3.3468
 IR Inten    --     17.6201              1109.9348              1552.4960

                     46                     47                     48
                      A                      A                      A
 Frequencies --   3075.1585              3082.4427              3112.5883
 Red. masses --      1.0370                 1.0357                 1.0281
 Frc consts  --      5.7778                 5.7980                 5.8687
 IR Inten    --     25.0773                 0.4254                 6.2501

                     49                     50                     51
                      A                      A                      A
 Frequencies --   3159.4357              3167.8583              3168.5054
 Red. masses --      1.1035                 1.1051                 1.0986
 Frc consts  --      6.4900                 6.5340                 6.4982
 IR Inten    --      4.5129                 1.7616                11.0147

                     52                     53                     54
                      A                      A                      A
 Frequencies --   3201.9607              3217.8305              3236.0780
 Red. masses --      1.1091                 1.1111                 1.1121
 Frc consts  --      6.6997                 6.7784                 6.8618
 IR Inten    --      3.8530                 0.7121                 0.1186

                     55                     56                     57
                      A                      A                      A
 Frequencies --   3468.2464              3712.5381              3754.0626
 Red. masses --      1.0646                 1.0664                 1.0674
 Frc consts  --      7.5448                 8.6602                 8.8626
 IR Inten    --    433.7768                98.7503               111.0920

 - Thermochemistry -
 -------------------
 Temperature   298.150 Kelvin.  Pressure   1.00000 Atm.
 Atom     1 has atomic number  6 and mass  12.00000

 Molecular mass:   125.08138 amu.
 Principal axes and moments of inertia in atomic units:
                           1         2         3
     Eigenvalues --   678.887541539.112321800.07975
           X            0.99975  -0.01740  -0.01426
           Y            0.01790   0.99919   0.03593
           Z            0.01363  -0.03618   0.99925
 This molecule is an asymmetric top.
 Rotational symmetry number  1.
 Warning -- assumption of classical behavior for rotation
           may cause significant error
 Rotational temperatures (Kelvin)      0.12758     0.05628     0.04812
 Rotational constants (GHZ):           2.65838     1.17259     1.00259
    1 imaginary frequencies ignored.
 Zero-point vibrational energy     477759.2 (Joules/Mol)
                                  114.18720 (Kcal/Mol)
 Warning -- explicit consideration of  17 degrees of freedom as
           vibrations may cause significant error
 Vibrational temperatures:     75.57    91.79   177.45   192.02   251.17
          (Kelvin)            288.65   307.20   358.70   393.20   454.75
                              530.99   568.02   668.63   695.91   781.92
                              831.58   863.82  1085.31  1189.04  1370.39
                             1381.10  1471.00  1503.59  1559.13  1584.15
                             1618.10  1685.17  1694.58  1746.62  1779.86
                             1889.43  1967.29  2011.29  2098.28  2126.37
                             2148.87  2168.99  2172.94  2176.00  2176.83
                             2178.01  2198.10  2506.34  3278.72  4424.46
                             4434.94  4478.31  4545.72  4557.84  4558.77
                             4606.90  4629.73  4655.99  4990.03  5341.51
                             5401.25

 Zero-point correction=                           0.181969 (Hartree/Particle)
 Thermal correction to Energy=                    0.193044
 Thermal correction to Enthalpy=                  0.193988
 Thermal correction to Gibbs Free Energy=         0.145555
 Sum of electronic and zero-point Energies=           -460.510213
 Sum of electronic and thermal Energies=              -460.499138
 Sum of electronic and thermal Enthalpies=            -460.498194
 Sum of electronic and thermal Free Energies=         -460.546627

                     E (Thermal)             CV                S
                      KCal/Mol        Cal/Mol-Kelvin    Cal/Mol-Kelvin
 Total                  121.137             38.924            101.935
 Electronic               0.000              0.000              0.000
 Translational            0.889              2.981             40.385
 Rotational               0.889              2.981             29.021
 Vibrational            119.359             32.962             32.529
 Vibration     1          0.596              1.977              4.720
 Vibration     2          0.597              1.972              4.336
 Vibration     3          0.610              1.930              3.047
 Vibration     4          0.613              1.920              2.896
 Vibration     5          0.627              1.874              2.386
 Vibration     6          0.638              1.839              2.127
 Vibration     7          0.644              1.820              2.013
 Vibration     8          0.662              1.764              1.735
 Vibration     9          0.676              1.723              1.575
 Vibration    10          0.703              1.643              1.330
 Vibration    11          0.741              1.536              1.084
 Vibration    12          0.762              1.481              0.982
 Vibration    13          0.822              1.328              0.752
 Vibration    14          0.840              1.286              0.700
 Vibration    15          0.899              1.154              0.558
 Vibration    16          0.935              1.079              0.489
 Vibration    17          0.959              1.031              0.449

 Optimization completed.
    -- Stationary point found.
 Normal termination of Gaussian 09 at Wed Sep 30 09:07:57 2015.
